
     Program PWSCF v.7.3 starts on  2May2026 at 14:36:56 

     This program is part of the open-source Quantum ESPRESSO suite
     for quantum simulation of materials; please cite
         "P. Giannozzi et al., J. Phys.:Condens. Matter 21 395502 (2009);
         "P. Giannozzi et al., J. Phys.:Condens. Matter 29 465901 (2017);
         "P. Giannozzi et al., J. Chem. Phys. 152 154105 (2020);
          URL http://www.quantum-espresso.org", 
     in publications or presentations arising from this work. More details at
     http://www.quantum-espresso.org/quote

     Parallel version (MPI), running on     1 processors

     MPI processes distributed on     1 nodes
     7000 MiB available memory on the printing compute node when the environment starts

     Waiting for input...
     Reading input from standard input

     Current dimensions of program PWSCF are:
     Max number of different atomic species (ntypx) = 10
     Max number of k-points (npk) =  40000
     Max angular momentum in pseudopotentials (lmaxx) =  4
     file C.pbe-n-kjpaw_psl.1.0.0.UPF: wavefunction(s)  2S 2P renormalized
     file F.pbe-n-kjpaw_psl.1.0.0.UPF: wavefunction(s)  2S 2P renormalized

     Atomic positions and unit cell read from directory:
     ./tmp/diamond_F_bands.save/

     Message from routine setup:
     using ibrav=0 with symmetry is DISCOURAGED, use correct ibrav instead

     Subspace diagonalization in iterative solution of the eigenvalue problem:
     a serial algorithm will be used


     G-vector sticks info
     --------------------
     sticks:   dense  smooth     PW     G-vecs:    dense   smooth      PW
     Sum         253     253     85                25509    25509    4525

     Using Slab Decomposition



     bravais-lattice index     =            0
     lattice parameter (alat)  =       4.7659  a.u.
     unit-cell volume          =     743.4030 (a.u.)^3
     number of atoms/cell      =            9
     number of atomic types    =            2
     number of electrons       =        39.00
     number of Kohn-Sham states=           24
     kinetic-energy cutoff     =      40.0000  Ry
     charge density cutoff     =     160.0000  Ry
     Exchange-correlation= SLA  PW   PBX  PBC
                           (   1   4   3   4   0   0   0)

     celldm(1)=   4.765889  celldm(2)=   0.000000  celldm(3)=   0.000000
     celldm(4)=   0.000000  celldm(5)=   0.000000  celldm(6)=   0.000000

     crystal axes: (cart. coord. in units of alat)
               a(1) = (   1.000000   0.000000   0.000000 )  
               a(2) = (   0.500000   0.865979   0.000000 )  
               a(3) = (   0.000000   0.000000   7.930214 )  

     reciprocal axes: (cart. coord. in units 2 pi/alat)
               b(1) = (  1.000000 -0.577381  0.000000 )  
               b(2) = (  0.000000  1.154762  0.000000 )  
               b(3) = (  0.000000  0.000000  0.126100 )  


     PseudoPot. # 1 for C  read from file:
     /home/rania/diamond_project/C.pbe-n-kjpaw_psl.1.0.0.UPF
     MD5 check sum: 5f16ad9a65e90284d1d834d4ab3b0f7d
     Pseudo is Projector augmented-wave + core cor, Zval =  4.0
     Generated using &quot;atomic&quot; code by A. Dal Corso  v.6.3
     Shape of augmentation charge: PSQ
     Using radial grid of 1073 points,  4 beta functions with: 
                l(1) =   0
                l(2) =   0
                l(3) =   1
                l(4) =   1
     Q(r) pseudized with 0 coefficients 


     PseudoPot. # 2 for F  read from file:
     /home/rania/diamond_project/F.pbe-n-kjpaw_psl.1.0.0.UPF
     MD5 check sum: 66d718ea72839a4268ab2a9540e8cdd4
     Pseudo is Projector augmented-wave + core cor, Zval =  7.0
     Generated using &quot;atomic&quot; code by A. Dal Corso  v.6.3
     Shape of augmentation charge: PSQ
     Using radial grid of 1105 points,  4 beta functions with: 
                l(1) =   0
                l(2) =   0
                l(3) =   1
                l(4) =   1
     Q(r) pseudized with 0 coefficients 


     atomic species   valence    mass     pseudopotential
     C                 4.00    12.01100     C ( 1.00)
     F                 7.00    18.99800     F ( 1.00)

      2 Sym. Ops. (no inversion) found



   Cartesian axes

     site n.     atom                  positions (alat units)
         1        C      tau(   1) = (   0.0000000   0.0000000   0.0000000  )
         2        C      tau(   2) = (   0.5000000   0.2886598   0.2042030  )
         3        C      tau(   3) = (   0.0000000   0.0000000   0.8168121  )
         4        C      tau(   4) = (   0.5000000   0.2886598   1.0210151  )
         5        C      tau(   5) = (   0.0000000   0.0000000   1.6336241  )
         6        C      tau(   6) = (   0.5000000   0.2886598   1.8378271  )
         7        C      tau(   7) = (   0.0000000   0.0000000   2.4504362  )
         8        C      tau(   8) = (   0.5000000   0.2886598   2.6546392  )
         9        F      tau(   9) = (   0.0000000   0.0000000   3.2117367  )

     number of k points=    91  Marzari-Vanderbilt smearing, width (Ry)=  0.0200
                       cart. coord. in units 2pi/alat
        k(    1) = (   0.0000000   0.0000000   0.0000000), wk =   0.0219780
        k(    2) = (   0.0111000   0.0064089   0.0000000), wk =   0.0219780
        k(    3) = (   0.0222000   0.0128179   0.0000000), wk =   0.0219780
        k(    4) = (   0.0333000   0.0192268   0.0000000), wk =   0.0219780
        k(    5) = (   0.0444000   0.0256357   0.0000000), wk =   0.0219780
        k(    6) = (   0.0555000   0.0320446   0.0000000), wk =   0.0219780
        k(    7) = (   0.0666000   0.0384536   0.0000000), wk =   0.0219780
        k(    8) = (   0.0777000   0.0448625   0.0000000), wk =   0.0219780
        k(    9) = (   0.0888000   0.0512714   0.0000000), wk =   0.0219780
        k(   10) = (   0.0999000   0.0576804   0.0000000), wk =   0.0219780
        k(   11) = (   0.1110000   0.0640893   0.0000000), wk =   0.0219780
        k(   12) = (   0.1221000   0.0704982   0.0000000), wk =   0.0219780
        k(   13) = (   0.1332000   0.0769071   0.0000000), wk =   0.0219780
        k(   14) = (   0.1443000   0.0833161   0.0000000), wk =   0.0219780
        k(   15) = (   0.1554000   0.0897250   0.0000000), wk =   0.0219780
        k(   16) = (   0.1665000   0.0961339   0.0000000), wk =   0.0219780
        k(   17) = (   0.1776000   0.1025429   0.0000000), wk =   0.0219780
        k(   18) = (   0.1887000   0.1089518   0.0000000), wk =   0.0219780
        k(   19) = (   0.1998000   0.1153607   0.0000000), wk =   0.0219780
        k(   20) = (   0.2109000   0.1217696   0.0000000), wk =   0.0219780
        k(   21) = (   0.2220000   0.1281786   0.0000000), wk =   0.0219780
        k(   22) = (   0.2331000   0.1345875   0.0000000), wk =   0.0219780
        k(   23) = (   0.2442000   0.1409964   0.0000000), wk =   0.0219780
        k(   24) = (   0.2553000   0.1474054   0.0000000), wk =   0.0219780
        k(   25) = (   0.2664000   0.1538143   0.0000000), wk =   0.0219780
        k(   26) = (   0.2775000   0.1602232   0.0000000), wk =   0.0219780
        k(   27) = (   0.2886000   0.1666321   0.0000000), wk =   0.0219780
        k(   28) = (   0.2997000   0.1730411   0.0000000), wk =   0.0219780
        k(   29) = (   0.3108000   0.1794500   0.0000000), wk =   0.0219780
        k(   30) = (   0.3219000   0.1858589   0.0000000), wk =   0.0219780
        k(   31) = (   0.3330000   0.1922679   0.0000000), wk =   0.0219780
        k(   32) = (   0.3385667   0.1762359   0.0000000), wk =   0.0219780
        k(   33) = (   0.3441333   0.1602040   0.0000000), wk =   0.0219780
        k(   34) = (   0.3497000   0.1441720   0.0000000), wk =   0.0219780
        k(   35) = (   0.3552667   0.1281401   0.0000000), wk =   0.0219780
        k(   36) = (   0.3608333   0.1121081   0.0000000), wk =   0.0219780
        k(   37) = (   0.3664000   0.0960762   0.0000000), wk =   0.0219780
        k(   38) = (   0.3719667   0.0800442   0.0000000), wk =   0.0219780
        k(   39) = (   0.3775333   0.0640123   0.0000000), wk =   0.0219780
        k(   40) = (   0.3831000   0.0479804   0.0000000), wk =   0.0219780
        k(   41) = (   0.3886667   0.0319484   0.0000000), wk =   0.0219780
        k(   42) = (   0.3942333   0.0159165   0.0000000), wk =   0.0219780
        k(   43) = (   0.3998000  -0.0001155   0.0000000), wk =   0.0219780
        k(   44) = (   0.4053667  -0.0161474   0.0000000), wk =   0.0219780
        k(   45) = (   0.4109333  -0.0321794   0.0000000), wk =   0.0219780
        k(   46) = (   0.4165000  -0.0482113   0.0000000), wk =   0.0219780
        k(   47) = (   0.4220667  -0.0642433   0.0000000), wk =   0.0219780
        k(   48) = (   0.4276333  -0.0802752   0.0000000), wk =   0.0219780
        k(   49) = (   0.4332000  -0.0963071   0.0000000), wk =   0.0219780
        k(   50) = (   0.4387667  -0.1123391   0.0000000), wk =   0.0219780
        k(   51) = (   0.4443333  -0.1283710   0.0000000), wk =   0.0219780
        k(   52) = (   0.4499000  -0.1444030   0.0000000), wk =   0.0219780
        k(   53) = (   0.4554667  -0.1604349   0.0000000), wk =   0.0219780
        k(   54) = (   0.4610333  -0.1764669   0.0000000), wk =   0.0219780
        k(   55) = (   0.4666000  -0.1924988   0.0000000), wk =   0.0219780
        k(   56) = (   0.4721667  -0.2085308   0.0000000), wk =   0.0219780
        k(   57) = (   0.4777333  -0.2245627   0.0000000), wk =   0.0219780
        k(   58) = (   0.4833000  -0.2405946   0.0000000), wk =   0.0219780
        k(   59) = (   0.4888667  -0.2566266   0.0000000), wk =   0.0219780
        k(   60) = (   0.4944333  -0.2726585   0.0000000), wk =   0.0219780
        k(   61) = (   0.5000000  -0.2886905   0.0000000), wk =   0.0219780
        k(   62) = (   0.4833333  -0.2790675   0.0000000), wk =   0.0219780
        k(   63) = (   0.4666667  -0.2694444   0.0000000), wk =   0.0219780
        k(   64) = (   0.4500000  -0.2598214   0.0000000), wk =   0.0219780
        k(   65) = (   0.4333333  -0.2501984   0.0000000), wk =   0.0219780
        k(   66) = (   0.4166667  -0.2405754   0.0000000), wk =   0.0219780
        k(   67) = (   0.4000000  -0.2309524   0.0000000), wk =   0.0219780
        k(   68) = (   0.3833333  -0.2213294   0.0000000), wk =   0.0219780
        k(   69) = (   0.3666667  -0.2117063   0.0000000), wk =   0.0219780
        k(   70) = (   0.3500000  -0.2020833   0.0000000), wk =   0.0219780
        k(   71) = (   0.3333333  -0.1924603   0.0000000), wk =   0.0219780
        k(   72) = (   0.3166667  -0.1828373   0.0000000), wk =   0.0219780
        k(   73) = (   0.3000000  -0.1732143   0.0000000), wk =   0.0219780
        k(   74) = (   0.2833333  -0.1635913   0.0000000), wk =   0.0219780
        k(   75) = (   0.2666667  -0.1539683   0.0000000), wk =   0.0219780
        k(   76) = (   0.2500000  -0.1443452   0.0000000), wk =   0.0219780
        k(   77) = (   0.2333333  -0.1347222   0.0000000), wk =   0.0219780
        k(   78) = (   0.2166667  -0.1250992   0.0000000), wk =   0.0219780
        k(   79) = (   0.2000000  -0.1154762   0.0000000), wk =   0.0219780
        k(   80) = (   0.1833333  -0.1058532   0.0000000), wk =   0.0219780
        k(   81) = (   0.1666667  -0.0962302   0.0000000), wk =   0.0219780
        k(   82) = (   0.1500000  -0.0866071   0.0000000), wk =   0.0219780
        k(   83) = (   0.1333333  -0.0769841   0.0000000), wk =   0.0219780
        k(   84) = (   0.1166667  -0.0673611   0.0000000), wk =   0.0219780
        k(   85) = (   0.1000000  -0.0577381   0.0000000), wk =   0.0219780
        k(   86) = (   0.0833333  -0.0481151   0.0000000), wk =   0.0219780
        k(   87) = (   0.0666667  -0.0384921   0.0000000), wk =   0.0219780
        k(   88) = (   0.0500000  -0.0288690   0.0000000), wk =   0.0219780
        k(   89) = (   0.0333333  -0.0192460   0.0000000), wk =   0.0219780
        k(   90) = (   0.0166667  -0.0096230   0.0000000), wk =   0.0219780
        k(   91) = (   0.0000000   0.0000000   0.0000000), wk =   0.0219780

     Dense  grid:    25509 G-vectors     FFT dimensions: (  20,  20, 160)

     Estimated max dynamical RAM per process >      33.76 MB

     Check: negative core charge=   -0.000030

     The potential is recalculated from file :
     ./tmp/diamond_F_bands.save/charge-density


     negative rho (up, down):  1.868E-03 0.000E+00
     Starting wfcs are   36 randomized atomic wfcs
     Checking if some PAW data can be deallocated... 

     Band Structure Calculation
     Davidson diagonalization with overlap
     c_bands:  2 eigenvalues not converged
     c_bands:  1 eigenvalues not converged
     c_bands:  2 eigenvalues not converged
     c_bands:  1 eigenvalues not converged
     c_bands:  1 eigenvalues not converged
     c_bands:  2 eigenvalues not converged
     c_bands:  2 eigenvalues not converged

     ethr =  2.56E-11,  avg # of iterations = 52.9

     total cpu time spent up to now is      113.7 secs

     End of band structure calculation

          k = 0.0000 0.0000 0.0000 (  3185 PWs)   bands (ev):

   -20.8383 -19.7497 -18.3550 -16.3673 -14.7881  -9.3198  -5.9964  -2.4632
    -1.3732  -1.3728  -0.6263  -0.6260   0.2945   0.2948   0.6276   1.1545
     1.1548   1.7463   1.7465   3.3435   6.3200   7.5827   7.7491   7.7502

          k = 0.0111 0.0064 0.0000 (  3183 PWs)   bands (ev):

   -20.8366 -19.7468 -18.3521 -16.3645 -14.7855  -9.3170  -5.9939  -2.4617
    -1.3903  -1.3796  -0.6411  -0.6319   0.2802   0.2894   0.6306   1.1421
     1.1492   1.7391   1.7446   3.3472   6.3221   7.5853   7.7446   7.7613

          k = 0.0222 0.0128 0.0000 (  3179 PWs)   bands (ev):

   -20.8314 -19.7381 -18.3437 -16.3563 -14.7777  -9.3085  -5.9865  -2.4571
    -1.4417  -1.3998  -0.6858  -0.6505   0.2376   0.2736   0.6389   1.1049
     1.1326   1.7180   1.7392   3.3586   6.3282   7.5897   7.7373   7.7976

          k = 0.0333 0.0192 0.0000 (  3183 PWs)   bands (ev):

   -20.8227 -19.7236 -18.3296 -16.3427 -14.7648  -9.2943  -5.9743  -2.4499
    -1.5262  -1.4335  -0.7594  -0.6811   0.1686   0.2473   0.6511   1.0439
     1.1051   1.6834   1.7302   3.3768   6.3383   7.5873   7.7325   7.7913

          k = 0.0444 0.0256 0.0000 (  3183 PWs)   bands (ev):

   -20.8106 -19.7033 -18.3098 -16.3236 -14.7466  -9.2745  -5.9571  -2.4405
    -1.6414  -1.4796  -0.8597  -0.7232   0.0747   0.2109   0.6652   0.9609
     1.0671   1.6362   1.7181   3.4015   6.3518   7.5692   7.6981   7.7640

          k = 0.0555 0.0320 0.0000 (  3183 PWs)   bands (ev):

   -20.7951 -19.6771 -18.2844 -16.2990 -14.7232  -9.2490  -5.9352  -2.4297
    -1.7851  -1.5376  -0.9847  -0.7765  -0.0421   0.1649   0.6770   0.8607
     1.0192   1.5772   1.7030   3.4320   6.3684   7.5307   7.6163   7.7691

          k = 0.0666 0.0385 0.0000 (  3171 PWs)   bands (ev):

   -20.7763 -19.6451 -18.2534 -16.2690 -14.6947  -9.2179  -5.9084  -2.4198
    -1.9537  -1.6063  -1.1311  -0.8397  -0.1802   0.1099   0.6590   0.7717
     0.9622   1.5081   1.6857   3.4674   6.3874   7.4594   7.5341   7.7678

          k = 0.0777 0.0449 0.0000 (  3175 PWs)   bands (ev):

   -20.7543 -19.6073 -18.2167 -16.2335 -14.6610  -9.1813  -5.8771  -2.4168
    -2.1413  -1.6848  -1.2948  -0.9122  -0.3380   0.0464   0.5474   0.7585
     0.8965   1.4300   1.6662   3.5064   6.4076   7.3467   7.4680   7.7512

          k = 0.0888 0.0513 0.0000 (  3169 PWs)   bands (ev):

   -20.7291 -19.5636 -18.1744 -16.1926 -14.6221  -9.1391  -5.8412  -2.4542
    -2.3153  -1.7720  -1.4692  -0.9931  -0.5135  -0.0248   0.3891   0.7750
     0.8230   1.3455   1.6448   3.5490   6.4284   7.2103   7.4038   7.7200

          k = 0.0999 0.0577 0.0000 (  3175 PWs)   bands (ev):

   -20.7009 -19.5141 -18.1264 -16.1462 -14.5780  -9.0914  -5.8009  -2.6326
    -2.3824  -1.8670  -1.6432  -1.0814  -0.7048  -0.1030   0.2097   0.7426
     0.7951   1.2572   1.6219   3.5941   6.4483   7.0589   7.3352   7.6761

          k = 0.1110 0.0641 0.0000 (  3177 PWs)   bands (ev):

   -20.6697 -19.4588 -18.0729 -16.0944 -14.5288  -9.0384  -5.7564  -2.8746
    -2.4361  -1.9687  -1.7967  -1.1760  -0.9095  -0.1874   0.0145   0.6562
     0.8109   1.1710   1.5977   3.6414   6.4655   6.8955   7.2611   7.6218

          k = 0.1221 0.0705 0.0000 (  3177 PWs)   bands (ev):

   -20.6357 -19.3976 -18.0136 -16.0372 -14.4744  -8.9800  -5.7080  -3.1372
    -2.5431  -2.0756  -1.9029  -1.2762  -1.1248  -0.2771  -0.1941   0.5646
     0.8102   1.0991   1.5726   3.6905   6.4759   6.7240   7.1814   7.5598

          k = 0.1332 0.0769 0.0000 (  3171 PWs)   bands (ev):

   -20.5990 -19.3305 -17.9487 -15.9746 -14.4148  -8.9162  -5.6560  -3.4135
    -2.7162  -2.1869  -1.9549  -1.3807  -1.3463  -0.4143  -0.3713   0.4688
     0.7743   1.0611   1.5467   3.7409   6.4544   6.5692   7.0961   7.4932

          k = 0.1443 0.0833 0.0000 (  3173 PWs)   bands (ev):

   -20.5598 -19.2576 -17.8782 -15.9066 -14.3501  -8.8473  -5.6010  -3.7006
    -2.9380  -2.3017  -1.9797  -1.5624  -1.4887  -0.6448  -0.4693   0.3694
     0.6980   1.0624   1.5201   3.7923   6.3081   6.5221   7.0049   7.4254

          k = 0.1554 0.0897 0.0000 (  3168 PWs)   bands (ev):

   -20.5182 -19.1788 -17.8021 -15.8332 -14.2801  -8.7733  -5.5437  -3.9960
    -3.1892  -2.4189  -2.0369  -1.7302  -1.5995  -0.8839  -0.5702   0.2673
     0.5977   1.0880   1.4930   3.8445   6.1088   6.5100   6.9071   7.3598

          k = 0.1665 0.0961 0.0000 (  3160 PWs)   bands (ev):

   -20.4744 -19.0941 -17.7204 -15.7545 -14.2051  -8.6944  -5.4858  -4.2976
    -3.4579  -2.5378  -2.2033  -1.7817  -1.7120  -1.1302  -0.6731   0.1633
     0.4861   1.1258   1.4658   3.8970   5.8960   6.4920   6.8024   7.3002

          k = 0.1776 0.1025 0.0000 (  3152 PWs)   bands (ev):

   -20.4286 -19.0036 -17.6330 -15.6704 -14.1250  -8.6107  -5.4305  -4.6017
    -3.7378  -2.6577  -2.4366  -1.8258  -1.7630  -1.3823  -0.7778   0.0579
     0.3693   1.1707   1.4381   3.9495   5.6746   6.4627   6.6902   7.2491

          k = 0.1887 0.1090 0.0000 (  3156 PWs)   bands (ev):

   -20.3809 -18.9072 -17.5400 -15.5810 -14.0397  -8.5226  -5.3884  -4.8984
    -4.0245  -2.7777  -2.6906  -1.9400  -1.7257  -1.6352  -0.8833  -0.0481
     0.2498   1.2202   1.4103   4.0014   5.4463   6.4201   6.5706   7.2077

          k = 0.1998 0.1154 0.0000 (  3150 PWs)   bands (ev):

   -20.3317 -18.8049 -17.4414 -15.4862 -13.9494  -8.4301  -5.4174  -5.1327
    -4.3132  -2.9513  -2.8973  -2.0541  -1.9054  -1.6647  -0.9891  -0.1541
     0.1304   1.2736   1.3825   4.0519   5.2134   6.3622   6.4468   7.1754

          k = 0.2109 0.1218 0.0000 (  3154 PWs)   bands (ev):

   -20.2810 -18.6969 -17.3373 -15.3862 -13.8540  -8.3338  -5.6392  -5.1910
    -4.5953  -3.2126  -3.0160  -2.1682  -2.1676  -1.6087  -1.0945  -0.2597
     0.0122   1.3296   1.3546   4.0984   4.9785   6.2734   6.3363   7.1503

          k = 0.2220 0.1282 0.0000 (  3146 PWs)   bands (ev):

   -20.2291 -18.5830 -17.2276 -15.2809 -13.7534  -8.2339  -5.9428  -5.2174
    -4.8396  -3.4690  -3.1331  -2.4332  -2.2796  -1.5490  -1.1991  -0.3643
    -0.1028   1.3268   1.3885   4.1355   4.7482   6.1415   6.2541   7.1302

          k = 0.2331 0.1346 0.0000 (  3148 PWs)   bands (ev):

   -20.1763 -18.4633 -17.1123 -15.1704 -13.6479  -8.1313  -6.2627  -5.3662
    -4.9640  -3.7127  -3.2483  -2.6981  -2.3900  -1.4890  -1.3023  -0.4674
    -0.2132   1.2993   1.4495   4.1420   4.5438   5.9926   6.1766   7.1124

          k = 0.2442 0.1410 0.0000 (  3152 PWs)   bands (ev):

   -20.1228 -18.3379 -16.9916 -15.0547 -13.5374  -8.0268  -6.5872  -5.6257
    -5.0019  -3.9299  -3.3610  -2.9607  -2.4982  -1.4310  -1.4039  -0.5687
    -0.3162   1.2719   1.5124   4.0552   4.4290   5.8356   6.0978   7.0954

          k = 0.2553 0.1474 0.0000 (  3150 PWs)   bands (ev):

   -20.0688 -18.2068 -16.8653 -14.9338 -13.4219  -7.9217  -6.9136  -5.9154
    -5.0566  -4.1009  -3.4710  -3.2174  -2.6040  -1.5032  -1.3786  -0.6677
    -0.4086   1.2451   1.5771   3.8590   4.4202   5.6727   6.0174   7.0776

          k = 0.2664 0.1538 0.0000 (  3160 PWs)   bands (ev):

   -20.0146 -18.0701 -16.7337 -14.8078 -13.3014  -7.8187  -7.2405  -6.2110
    -5.1716  -4.2107  -3.5782  -3.4614  -2.7071  -1.6002  -1.3362  -0.7643
    -0.4857   1.2184   1.6435   3.6205   4.4504   5.5052   5.9360   7.0581

          k = 0.2775 0.1602 0.0000 (  3160 PWs)   bands (ev):

   -19.9604 -17.9277 -16.5966 -14.6767 -13.1761  -7.7230  -7.5664  -6.5026
    -5.3499  -4.2767  -3.6816  -3.6760  -2.8068  -1.6944  -1.3097  -0.8581
    -0.5412   1.1924   1.7111   3.3689   4.4908   5.3345   5.8544   7.0365

          k = 0.2886 0.1666 0.0000 (  3166 PWs)   bands (ev):

   -19.9065 -17.7797 -16.4542 -14.5407 -13.0459  -7.8934  -7.6429  -6.7784
    -5.5713  -4.3555  -3.8256  -3.7814  -2.9029  -1.7855  -1.3046  -0.9489
    -0.5700   1.1669   1.7798   3.1121   4.5323   5.1627   5.7728   7.0128

          k = 0.2997 0.1730 0.0000 (  3156 PWs)   bands (ev):

   -19.8532 -17.6263 -16.3065 -14.3997 -12.9110  -8.2168  -7.6150  -7.0077
    -5.8155  -4.4989  -3.8771  -3.8759  -2.9954  -1.8732  -1.3224  -1.0362
    -0.5693   1.1422   1.8494   2.8541   4.5682   4.9947   5.6917   6.9869

          k = 0.3108 0.1794 0.0000 (  3166 PWs)   bands (ev):

   -19.8007 -17.4676 -16.1536 -14.2539 -12.7714  -8.5384  -7.7053  -7.1260
    -6.0690  -4.6920  -3.9690  -3.8521  -3.0841  -1.9574  -1.3601  -1.1200
    -0.5435   1.1180   1.9193   2.5967   4.5809   4.8475   5.6110   6.9588

          k = 0.3219 0.1859 0.0000 (  3172 PWs)   bands (ev):

   -19.7494 -17.3036 -15.9957 -14.1034 -12.6273  -8.8574  -7.9187  -7.1365
    -6.3203  -4.8986  -4.0563  -3.7929  -3.1686  -2.0377  -1.4102  -1.1998
    -0.4989   1.0949   1.9891   2.3416   4.5169   4.7749   5.5311   6.9288

          k = 0.3330 0.1923 0.0000 (  3188 PWs)   bands (ev):

   -19.6994 -17.1344 -15.8329 -13.9483 -12.4787  -9.1734  -8.1844  -7.1285
    -6.5537  -5.0971  -4.1391  -3.7181  -3.2489  -2.1141  -1.4662  -1.2757
    -0.4425   1.0725   2.0524   2.0963   4.3727   4.7809   5.4519   6.8971

          k = 0.3386 0.1762 0.0000 (  3174 PWs)   bands (ev):

   -19.7102 -17.1722 -15.8692 -13.9829 -12.5118  -9.0930  -8.1138  -7.1243
    -6.4968  -5.0470  -4.1486  -3.7358  -3.2553  -2.1207  -1.4495  -1.2784
    -0.4536   1.0693   2.0435   2.1527   4.4161   4.7792   5.4973   6.9193

          k = 0.3441 0.1602 0.0000 (  3177 PWs)   bands (ev):

   -19.7178 -17.1998 -15.8958 -14.0082 -12.5361  -9.0090  -8.0409  -7.1155
    -6.4342  -4.9916  -4.2157  -3.7498  -3.3117  -2.1756  -1.4311  -1.3200
    -0.4574   1.0488   2.0377   2.2097   4.4645   4.7841   5.5920   6.9647

          k = 0.3497 0.1442 0.0000 (  3187 PWs)   bands (ev):

   -19.7223 -17.2174 -15.9127 -14.0243 -12.5516  -8.9222  -7.9663  -7.1012
    -6.3674  -4.9319  -4.3347  -3.7636  -3.4100  -2.2738  -1.4427  -1.3682
    -0.4543   1.0126   2.0377   2.2624   4.5159   4.7938   5.7292   7.0204

          k = 0.3553 0.1281 0.0000 (  3181 PWs)   bands (ev):

   -19.7236 -17.2249 -15.9198 -14.0310 -12.5581  -8.8339  -7.8912  -7.0807
    -6.2979  -4.8692  -4.4981  -3.7898  -3.5306  -2.4085  -1.5474  -1.3565
    -0.4454   0.9635   2.0435   2.3086   4.5675   4.8063   5.8973   7.0707

          k = 0.3608 0.1121 0.0000 (  3175 PWs)   bands (ev):

   -19.7217 -17.2222 -15.9172 -14.0284 -12.5558  -8.7458  -7.8174  -7.0539
    -6.2278  -4.8062  -4.6962  -3.8716  -3.6228  -2.5727  -1.6960  -1.3304
    -0.4318   0.9039   2.0541   2.3462   4.6156   4.8199   6.0803   7.1059

          k = 0.3664 0.0961 0.0000 (  3174 PWs)   bands (ev):

   -19.7168 -17.2095 -15.9048 -14.0166 -12.5446  -8.6608  -7.7470  -7.0214
    -6.1598  -4.9243  -4.7403  -4.0361  -3.6498  -2.7585  -1.8699  -1.3029
    -0.4144   0.8366   2.0691   2.3727   4.6574   4.8337   6.2609   7.1259

          k = 0.3720 0.0800 0.0000 (  3174 PWs)   bands (ev):

   -19.7088 -17.1866 -15.8828 -13.9956 -12.5245  -8.5824  -7.6825  -6.9840
    -6.0971  -5.1643  -4.6841  -4.2395  -3.6447  -2.9566  -2.0605  -1.2763
    -0.3942   0.7646   2.0879   2.3857   4.6892   4.8470   6.4231   7.1337

          k = 0.3775 0.0640 0.0000 (  3168 PWs)   bands (ev):

   -19.6979 -17.1538 -15.8510 -13.9652 -12.4956  -8.5163  -7.6277  -6.9439
    -6.0446  -5.4087  -4.6513  -4.4379  -3.6294  -3.1547  -2.2589  -1.2524
    -0.3718   0.6916   2.1101   2.3832   4.7069   4.8616   6.5555   7.1332

          k = 0.3831 0.0480 0.0000 (  3168 PWs)   bands (ev):

   -19.6842 -17.1109 -15.8096 -13.9258 -12.4579  -8.4702  -7.5877  -6.9040
    -6.0083  -5.6443  -4.7371  -4.5246  -3.6203  -3.3325  -2.4554  -1.2331
    -0.3481   0.6214   2.1351   2.3630   4.7060   4.8795   6.6515   7.1279

          k = 0.3887 0.0319 0.0000 (  3168 PWs)   bands (ev):

   -19.6680 -17.0580 -15.7586 -13.8771 -12.4115  -8.4544  -7.5698  -6.8682
    -5.9967  -5.8560  -4.9130  -4.5202  -3.6592  -3.4389  -2.6375  -1.2202
    -0.3234   0.5575   2.1625   2.3237   4.6842   4.9014   6.7082   7.1220

          k = 0.3942 0.0159 0.0000 (  3176 PWs)   bands (ev):

   -19.6495 -16.9951 -15.6980 -13.8194 -12.3563  -8.4810  -7.5842  -6.8394
    -6.0370  -6.0101  -5.0702  -4.5282  -3.7611  -3.4491  -2.7904  -1.2157
    -0.2982   0.5033   2.1889   2.2673   4.6421   4.9259   6.7254   7.1187

          k = 0.3998-0.0001 0.0000 (  3177 PWs)   bands (ev):

   -19.6288 -16.9224 -15.6279 -13.7527 -12.2925  -8.5608  -7.6426  -6.8197
    -6.1534  -6.0760  -5.1825  -4.5715  -3.8541  -3.4266  -2.8981  -1.2214
    -0.2723   0.4623   2.1668   2.2404   4.5806   4.9513   6.7064   7.1180

          k = 0.4054-0.0161 0.0000 (  3170 PWs)   bands (ev):

   -19.6063 -16.8399 -15.5484 -13.6770 -12.2201  -8.6985  -7.7535  -6.8105
    -6.2188  -6.1760  -5.2415  -4.6563  -3.9064  -3.4001  -2.9495  -1.2386
    -0.2454   0.4360   2.0696   2.2699   4.5013   4.9764   6.6572   7.1172

          k = 0.4109-0.0322 0.0000 (  3174 PWs)   bands (ev):

   -19.5823 -16.7477 -15.4596 -13.5925 -12.1392  -8.8898  -7.9175  -6.8190
    -6.3182  -6.2182  -5.2492  -4.7758  -3.9153  -3.3736  -2.9470  -1.2675
    -0.2171   0.4248   1.9476   2.3058   4.4051   5.0002   6.5834   7.1124

          k = 0.4165-0.0482 0.0000 (  3174 PWs)   bands (ev):

   -19.5572 -16.6459 -15.3615 -13.4993 -12.0499  -9.1240  -8.1267  -6.8676
    -6.4582  -6.1796  -5.2172  -4.9116  -3.8866  -3.3438  -2.9042  -1.3067
    -0.1870   0.4276   1.8075   2.3436   4.2940   5.0221   6.4897   7.1019

          k = 0.4221-0.0642 0.0000 (  3166 PWs)   bands (ev):

   -19.5311 -16.5348 -15.2544 -13.3976 -11.9525  -9.3890  -8.3697  -6.9905
    -6.5708  -6.1049  -5.1755  -5.0247  -3.8286  -3.3082  -2.8357  -1.3537
    -0.1551   0.4425   1.6530   2.3819   4.1705   5.0411   6.3790   7.0848

          k = 0.4276-0.0803 0.0000 (  3160 PWs)   bands (ev):

   -19.5046 -16.4145 -15.1385 -13.2875 -11.8471  -9.6741  -8.6357  -7.1870
    -6.6589  -6.0052  -5.2205  -5.0081  -3.7492  -3.2683  -2.7517  -1.4053
    -0.1227   0.4671   1.4884   2.4193   4.0373   5.0565   6.2537   7.0608

          k = 0.4332-0.0963 0.0000 (  3179 PWs)   bands (ev):

   -19.4780 -16.2852 -15.0140 -13.1695 -11.7341  -9.9711  -8.9158  -7.4248
    -6.7585  -5.8889  -5.2940  -4.9110  -3.6552  -3.2267  -2.6587  -1.4580
    -0.0918   0.4982   1.3190   2.4541   3.8980   5.0670   6.1160   7.0300

          k = 0.4388-0.1123 0.0000 (  3179 PWs)   bands (ev):

   -19.4517 -16.1475 -14.8813 -13.0437 -11.6141 -10.2736  -9.2032  -7.6816
    -6.8907  -5.7623  -5.3312  -4.7953  -3.5522  -3.1861  -2.5610  -1.5078
    -0.0658   0.5337   1.1518   2.4844   3.7571   5.0717   5.9687   6.9932

          k = 0.4443-0.1284 0.0000 (  3175 PWs)   bands (ev):

   -19.4260 -16.0017 -14.7410 -12.9109 -11.4878 -10.5764  -9.4930  -7.9463
    -7.0574  -5.6304  -5.3277  -4.6724  -3.4449  -3.1487  -2.4618  -1.5517
    -0.0500   0.5705   0.9962   2.5068   3.6203   5.0691   5.8154   6.9507

          k = 0.4499-0.1444 0.0000 (  3181 PWs)   bands (ev):

   -19.4014 -15.8486 -14.5935 -12.7715 -11.3583 -10.8740  -9.7812  -8.2126
    -7.2508  -5.4975  -5.2915  -4.5478  -3.3389  -3.1154  -2.3638  -1.5873
    -0.0524   0.6029   0.8662   2.5168   3.4943   5.0569   5.6611   6.9028

          k = 0.4555-0.1604 0.0000 (  3176 PWs)   bands (ev):

   -19.3782 -15.6890 -14.4400 -12.6267 -11.2633 -11.1262 -10.0641  -8.4758
    -7.4610  -5.3672  -5.2324  -4.4252  -3.2413  -3.0831  -2.2691  -1.6128
    -0.0818   0.6196   0.7843   2.5088   3.3874   5.0323   5.5129   6.8500

          k = 0.4610-0.1765 0.0000 (  3178 PWs)   bands (ev):

   -19.3567 -15.5244 -14.2816 -12.4780 -11.4785 -11.0563 -10.3380  -8.7322
    -7.6796  -5.2430  -5.1594  -4.3080  -3.1678  -3.0400  -2.1800  -1.6279
    -0.1434   0.6099   0.7673   2.4779   3.3069   4.9896   5.3811   6.7924

          k = 0.4666-0.1925 0.0000 (  3183 PWs)   bands (ev):

   -19.3374 -15.3568 -14.1204 -12.3280 -11.7484 -10.9217 -10.5959  -8.9777
    -7.8992  -5.1281  -5.0795  -4.1989  -3.1327  -2.9738  -2.0984  -1.6332
    -0.2321   0.5986   0.7867   2.4235   3.2560   4.9232   5.2768   6.7304

          k = 0.4722-0.2085 0.0000 (  3189 PWs)   bands (ev):

   -19.3205 -15.1891 -13.9594 -12.1855 -12.0001 -10.8845 -10.7380  -9.2074
    -8.1137  -5.0256  -4.9987  -4.1007  -3.1234  -2.8984  -2.0259  -1.6304
    -0.3342   0.6020   0.8147   2.3516   3.2314   4.8354   5.2040   6.6658

          k = 0.4777-0.2246 0.0000 (  3196 PWs)   bands (ev):

   -19.3063 -15.0262 -13.8030 -12.2588 -12.0227 -11.0879 -10.6229  -9.4145
    -8.3168  -4.9388  -4.9220  -4.0158  -3.1257  -2.8285  -1.9642  -1.6218
    -0.4358   0.6167   0.8421   2.2729   3.2255   4.7398   5.1555   6.6025

          k = 0.4833-0.2406 0.0000 (  3198 PWs)   bands (ev):

   -19.2950 -14.8755 -13.6587 -12.4645 -11.9008 -11.2767 -10.5047  -9.5883
    -8.5004  -4.8691  -4.8552  -3.9468  -3.1327  -2.7705  -1.9147  -1.6104
    -0.5257   0.6363   0.8654   2.1984   3.2301   4.6516   5.1230   6.5458

          k = 0.4889-0.2566 0.0000 (  3202 PWs)   bands (ev):

   -19.2868 -14.7486 -13.5374 -12.6335 -11.8093 -11.4155 -10.4146  -9.7146
    -8.6528  -4.8170  -4.8043  -3.8957  -3.1406  -2.7274  -1.8785  -1.5993
    -0.5958   0.6548   0.8829   2.1376   3.2383   4.5816   5.1013   6.5009

          k = 0.4944-0.2727 0.0000 (  3204 PWs)   bands (ev):

   -19.2818 -14.6611 -13.4541 -12.7463 -11.7719 -11.4816 -10.3654  -9.7830
    -8.7574  -4.7845  -4.7728  -3.8642  -3.1467  -2.7009  -1.8565  -1.5913
    -0.6403   0.6679   0.8940   2.0979   3.2454   4.5369   5.0888   6.4722

          k = 0.5000-0.2887 0.0000 (  3200 PWs)   bands (ev):

   -19.2801 -14.6295 -13.4241 -12.7864 -11.7696 -11.4934 -10.3521  -9.8020
    -8.7953  -4.7733  -4.7622  -3.8535  -3.1489  -2.6919  -1.8491  -1.5883
    -0.6555   0.6727   0.8978   2.0842   3.2481   4.5215   5.0846   6.4623

          k = 0.4833-0.2791 0.0000 (  3204 PWs)   bands (ev):

   -19.2848 -14.7035 -13.4945 -12.7018 -11.7876 -11.4618 -10.3885  -9.7597
    -8.7159  -4.8012  -4.7558  -3.8473  -3.1476  -2.6861  -1.8432  -1.5979
    -0.6233   0.6593   0.8995   2.1111   3.2373   4.5394   5.0823   6.4691

          k = 0.4667-0.2694 0.0000 (  3200 PWs)   bands (ev):

   -19.2989 -14.8943 -13.6769 -12.4793 -11.9178 -11.2913 -10.5204  -9.6026
    -8.5147  -4.8806  -4.7367  -3.8288  -3.1460  -2.6683  -1.8255  -1.6231
    -0.5316   0.6250   0.9050   2.1848   3.2111   4.5897   5.0753   6.4892

          k = 0.4500-0.2598 0.0000 (  3194 PWs)   bands (ev):

   -19.3221 -15.1489 -13.9212 -12.1989 -12.1075 -11.0150 -10.7213  -9.3454
    -8.2481  -4.9997  -4.7050  -3.7979  -3.1508  -2.6386  -1.7961  -1.6566
    -0.3962   0.5851   0.9143   2.2840   3.1869   4.6647   5.0633   6.5218

          k = 0.4333-0.2502 0.0000 (  3180 PWs)   bands (ev):

   -19.3540 -15.4322 -14.1934 -12.3971 -11.8037 -10.9866 -10.6496  -9.0303
    -7.9517  -5.1430  -4.6606  -3.7549  -3.1698  -2.5973  -1.7552  -1.6878
    -0.2477   0.5683   0.9272   2.3750   3.1941   4.7555   5.0467   6.5654

          k = 0.4167-0.2406 0.0000 (  3172 PWs)   bands (ev):

   -19.3944 -15.7256 -14.4758 -12.6614 -11.4300 -11.2176 -10.2810  -8.6825
    -7.6472  -5.2924  -4.6039  -3.6997  -3.2097  -2.5445  -1.7060  -1.7028
    -0.1394   0.6233   0.9436   2.4202   3.2666   4.8516   5.0281   6.6174

          k = 0.4000-0.2310 0.0000 (  3188 PWs)   bands (ev):

   -19.4425 -16.0198 -14.7592 -12.9290 -11.5070 -10.9816  -9.8847  -8.3151
    -7.3550  -5.4249  -4.5348  -3.6327  -3.2747  -2.4805  -1.7031  -1.6393
    -0.1169   0.7908   0.9631   2.4049   3.4151   4.9235   5.0320   6.6746

          k = 0.3833-0.2213 0.0000 (  3174 PWs)   bands (ev):

   -19.4977 -16.3097 -15.0385 -13.1934 -11.7562 -10.5534  -9.4718  -7.9380
    -7.1028  -5.5065  -4.4538  -3.5540  -3.3635  -2.4052  -1.6748  -1.5646
    -0.1648   0.9862   1.0516   2.3454   3.6204   4.9171   5.1106   6.7336

          k = 0.3667-0.2117 0.0000 (  3176 PWs)   bands (ev):

   -19.5592 -16.5924 -15.3108 -13.4519 -12.0031 -10.1079  -9.0479  -7.5659
    -6.9239  -5.4915  -4.3610  -3.4722  -3.4639  -2.3192  -1.6226  -1.4792
    -0.2480   1.0121   1.3670   2.2614   3.8589   4.8769   5.2184   6.7911

          k = 0.3500-0.2021 0.0000 (  3180 PWs)   bands (ev):

   -19.6262 -16.8660 -15.5743 -13.7023 -12.2430  -9.6502  -8.6181  -7.2499
    -6.7975  -5.3495  -4.2568  -3.5930  -3.3629  -2.2228  -1.5510  -1.3835
    -0.3447   1.0407   1.7141   2.1649   4.1136   4.8277   5.3326   6.8455

          k = 0.3333-0.1925 0.0000 (  3188 PWs)   bands (ev):

   -19.6980 -17.1293 -15.8279 -13.9436 -12.4742  -9.1829  -8.1927  -7.1288
    -6.5601  -5.1028  -4.1415  -3.7158  -3.2512  -2.1163  -1.4679  -1.2779
    -0.4407   1.0718   2.0526   2.0907   4.3678   4.7816   5.4495   6.8961

          k = 0.3167-0.1828 0.0000 (  3172 PWs)   bands (ev):

   -19.7734 -17.3815 -16.0708 -14.1750 -12.6958  -8.7074  -7.8076  -7.1393
    -6.2028  -4.8011  -4.0157  -3.8236  -3.1293  -2.0003  -1.3855  -1.1627
    -0.5218   1.1056   1.9562   2.4614   4.5604   4.7960   5.5686   6.9431

          k = 0.3000-0.1732 0.0000 (  3156 PWs)   bands (ev):

   -19.8518 -17.6221 -16.3024 -14.3959 -12.9073  -8.2255  -7.6155  -7.0127
    -5.8223  -4.5037  -3.8796  -3.8760  -2.9979  -1.8756  -1.3232  -1.0385
    -0.5690   1.1416   1.8513   2.8472   4.5690   4.9903   5.6895   6.9861

          k = 0.2833-0.1636 0.0000 (  3164 PWs)   bands (ev):

   -19.9320 -17.8506 -16.5224 -14.6059 -13.1083  -7.7409  -7.6749  -6.6507
    -5.4624  -4.3121  -3.7660  -3.7345  -2.8577  -1.7427  -1.3042  -0.9062
    -0.5600   1.1789   1.7471   3.2341   4.5129   5.2441   5.8115   7.0244

          k = 0.2667-0.1540 0.0000 (  3160 PWs)   bands (ev):

   -20.0133 -18.0667 -16.7304 -14.8047 -13.2985  -7.8163  -7.2484  -6.2180
    -5.1752  -4.2126  -3.5807  -3.4670  -2.7095  -1.6025  -1.3354  -0.7666
    -0.4873   1.2177   1.6451   3.6146   4.4513   5.5011   5.9341   7.0576

          k = 0.2500-0.1443 0.0000 (  3150 PWs)   bands (ev):

   -20.0946 -18.2701 -16.9263 -14.9921 -13.4776  -7.9718  -6.7576  -5.7755
    -5.0246  -4.0264  -3.4189  -3.0960  -2.5538  -1.4561  -1.4027  -0.6207
    -0.3661   1.2578   1.5461   3.9615   4.4160   5.7512   6.0559   7.0862

          k = 0.2333-0.1347 0.0000 (  3148 PWs)   bands (ev):

   -20.1752 -18.4608 -17.1099 -15.1680 -13.6456  -8.1291  -6.2695  -5.3709
    -4.9652  -3.7175  -3.2507  -2.7036  -2.3923  -1.4877  -1.3045  -0.4695
    -0.2154   1.2988   1.4508   4.1415   4.5402   5.9894   6.1750   7.1121

          k = 0.2167-0.1251 0.0000 (  3150 PWs)   bands (ev):

   -20.2542 -18.6384 -17.2810 -15.3322 -13.8024  -8.2823  -5.7935  -5.1975
    -4.7311  -3.3469  -3.0771  -2.3058  -2.2260  -1.5779  -1.1490  -0.3142
    -0.0481   1.3401   1.3600   4.1196   4.8576   6.2082   6.2919   7.1394

          k = 0.2000-0.1155 0.0000 (  3150 PWs)   bands (ev):

   -20.3308 -18.8030 -17.4396 -15.4845 -13.9477  -8.4284  -5.4196  -5.1353
    -4.3184  -2.9560  -2.8994  -2.0561  -1.9101  -1.6638  -0.9910  -0.1560
     0.1282   1.2746   1.3820   4.0528   5.2092   6.3610   6.4446   7.1749

          k = 0.1833-0.1059 0.0000 (  3154 PWs)   bands (ev):

   -20.4042 -18.9545 -17.5857 -15.6249 -14.0816  -8.5657  -5.4057  -4.7572
    -3.8853  -2.7197  -2.5665  -1.8848  -1.7438  -1.5141  -0.8322   0.0032
     0.3077   1.1958   1.4238   3.9764   5.5573   6.4425   6.6292   7.2265

          k = 0.1667-0.0962 0.0000 (  3160 PWs)   bands (ev):

   -20.4737 -19.0928 -17.7191 -15.7533 -14.2040  -8.6932  -5.4850  -4.3022
    -3.4620  -2.5396  -2.2065  -1.7817  -1.7137  -1.1340  -0.6747   0.1617
     0.4844   1.1264   1.4653   3.8978   5.8927   6.4917   6.8008   7.2994

          k = 0.1500-0.0866 0.0000 (  3175 PWs)   bands (ev):

   -20.5387 -19.2178 -17.8399 -15.8696 -14.3148  -8.8100  -5.5718  -3.8515
    -3.0643  -2.3616  -1.9990  -1.6600  -1.5453  -0.7666  -0.5207   0.3172
     0.6485   1.0734   1.5063   3.8190   6.2081   6.5158   6.9556   7.3912

          k = 0.1333-0.0770 0.0000 (  3171 PWs)   bands (ev):

   -20.5985 -19.3297 -17.9479 -15.9738 -14.4140  -8.9154  -5.6553  -3.4169
    -2.7186  -2.1883  -1.9553  -1.3820  -1.3490  -0.4170  -0.3725   0.4676
     0.7736   1.0609   1.5464   3.7415   6.4535   6.5678   7.0951   7.4924

          k = 0.1167-0.0674 0.0000 (  3173 PWs)   bands (ev):

   -20.6527 -19.4283 -18.0433 -16.0659 -14.5016  -9.0092  -5.7321  -3.0067
    -2.4822  -2.0226  -1.8581  -1.2265  -1.0183  -0.2326  -0.0904   0.6100
     0.8137   1.1314   1.5850   3.6663   6.4722   6.8085   7.2211   7.5909

          k = 0.1000-0.0577 0.0000 (  3175 PWs)   bands (ev):

   -20.7006 -19.5136 -18.1260 -16.1458 -14.5776  -9.0910  -5.8005  -2.6346
    -2.3828  -1.8679  -1.6447  -1.0822  -0.7066  -0.1038   0.2080   0.7419
     0.7953   1.2564   1.6217   3.5945   6.4484   7.0574   7.3345   7.6756

          k = 0.0833-0.0481 0.0000 (  3167 PWs)   bands (ev):

   -20.7419 -19.5858 -18.1959 -16.2134 -14.6419  -9.1606  -5.8595  -2.4246
    -2.2369  -1.7280  -1.3824  -0.9522  -0.4249   0.0112   0.4703   0.7658
     0.8601   1.3878   1.6556   3.5276   6.4182   7.2797   7.4358   7.7371

          k = 0.0667-0.0385 0.0000 (  3171 PWs)   bands (ev):

   -20.7762 -19.6449 -18.2532 -16.2688 -14.6945  -9.2177  -5.9083  -2.4198
    -1.9548  -1.6067  -1.1321  -0.8401  -0.1811   0.1095   0.6586   0.7714
     0.9618   1.5077   1.6856   3.4676   6.3875   7.4588   7.5337   7.7677

          k = 0.0500-0.0289 0.0000 (  3183 PWs)   bands (ev):

   -20.8032 -19.6908 -18.2977 -16.3119 -14.7355  -9.2623  -5.9466  -2.4351
    -1.7105  -1.5075  -0.9199  -0.7488   0.0186   0.1889   0.6721   0.9118
     1.0442   1.6078   1.7108   3.4163   6.3599   7.5527   7.6591   7.7660

          k = 0.0333-0.0192 0.0000 (  3183 PWs)   bands (ev):

   -20.8227 -19.7236 -18.3295 -16.3426 -14.7647  -9.2942  -5.9742  -2.4499
    -1.5265  -1.4336  -0.7596  -0.6812   0.1683   0.2472   0.6511   1.0437
     1.1050   1.6833   1.7301   3.3769   6.3383   7.5873   7.7324   7.7911

          k = 0.0167-0.0096 0.0000 (  3181 PWs)   bands (ev):

   -20.8344 -19.7432 -18.3486 -16.3611 -14.7823  -9.3134  -5.9908  -2.4598
    -1.4119  -1.3881  -0.6599  -0.6397   0.2623   0.2828   0.6342   1.1265
     1.1422   1.7303   1.7423   3.3520   6.3247   7.5877   7.7407   7.7758

          k = 0.0000 0.0000 0.0000 (  3185 PWs)   bands (ev):

   -20.8383 -19.7497 -18.3550 -16.3673 -14.7881  -9.3198  -5.9964  -2.4632
    -1.3732  -1.3728  -0.6263  -0.6260   0.2945   0.2948   0.6276   1.1545
     1.1548   1.7463   1.7465   3.3435   6.3200   7.5827   7.7491   7.7502

     Writing all to output data dir ./tmp/diamond_F_bands.save/ :
     XML data file, pseudopotentials, collected wavefunctions

     init_run     :      0.58s CPU      0.60s WALL (       1 calls)
     electrons    :    112.81s CPU    113.08s WALL (       1 calls)

     Called by init_run:
     wfcinit      :      0.00s CPU      0.00s WALL (       1 calls)
     potinit      :      0.12s CPU      0.13s WALL (       1 calls)
     hinit0       :      0.41s CPU      0.41s WALL (       1 calls)

     Called by electrons:
     c_bands      :    112.81s CPU    113.08s WALL (       1 calls)
     v_of_rho     :      0.01s CPU      0.02s WALL (       1 calls)
     newd         :      0.02s CPU      0.03s WALL (       1 calls)
     PAW_pot      :      0.11s CPU      0.11s WALL (       1 calls)

     Called by c_bands:
     init_us_2    :      0.04s CPU      0.05s WALL (      91 calls)
     init_us_2:cp :      0.04s CPU      0.05s WALL (      91 calls)
     cegterg      :    107.64s CPU    107.81s WALL (     280 calls)

     Called by *egterg:
     cdiaghg      :      2.68s CPU      2.69s WALL (    4908 calls)
     h_psi        :     46.55s CPU     46.65s WALL (    5188 calls)
     s_psi        :     13.99s CPU     14.02s WALL (    5188 calls)
     g_psi        :      0.36s CPU      0.36s WALL (    4817 calls)

     Called by h_psi:
     h_psi:calbec :     13.38s CPU     13.41s WALL (    5188 calls)
     vloc_psi     :     18.76s CPU     18.81s WALL (    5188 calls)
     add_vuspsi   :     14.20s CPU     14.23s WALL (    5188 calls)

     General routines
     calbec       :     13.36s CPU     13.40s WALL (    5188 calls)
     fft          :      0.30s CPU      0.30s WALL (      12 calls)
     fftw         :     14.74s CPU     14.78s WALL (  117896 calls)
     davcio       :      0.07s CPU      0.13s WALL (     182 calls)

     Parallel routines

     PWSCF        :   1m53.47s CPU   1m53.89s WALL


   This run was terminated on:  14:38:50   2May2026            

=------------------------------------------------------------------------------=
   JOB DONE.
=------------------------------------------------------------------------------=
