
     Program BANDS v.7.3 starts on  2May2026 at 14:18:51 

     This program is part of the open-source Quantum ESPRESSO suite
     for quantum simulation of materials; please cite
         "P. Giannozzi et al., J. Phys.:Condens. Matter 21 395502 (2009);
         "P. Giannozzi et al., J. Phys.:Condens. Matter 29 465901 (2017);
         "P. Giannozzi et al., J. Chem. Phys. 152 154105 (2020);
          URL http://www.quantum-espresso.org", 
     in publications or presentations arising from this work. More details at
     http://www.quantum-espresso.org/quote

     Parallel version (MPI), running on     1 processors

     MPI processes distributed on     1 nodes
     6292 MiB available memory on the printing compute node when the environment starts


     Reading xml data from directory:

     ./tmp/diamond_bands.save/
     file C.pbe-n-kjpaw_psl.1.0.0.UPF: wavefunction(s)  2S 2P renormalized

     IMPORTANT: XC functional enforced from input :
     Exchange-correlation= PBE
                           (   1   4   3   4   0   0   0)
     Any further DFT definition will be discarded
     Please, verify this is what you really want


     G-vector sticks info
     --------------------
     sticks:   dense  smooth     PW     G-vecs:    dense   smooth      PW
     Sum         253     253     85                25509    25509    4525

     Using Slab Decomposition


     Check: negative core charge=   -0.000029

     negative rho (up, down):  1.804E-03 0.000E+00
     Reading collected, re-writing distributed wavefunctions
     high-symmetry point:  0.0000 0.0000 0.0000   x coordinate   0.0000
     high-symmetry point:  0.3330 0.1923 0.0000   x coordinate   0.3845
     high-symmetry point:  0.5000-0.2887 0.0000   x coordinate   0.8936
     high-symmetry point:  0.0000 0.0000 0.0000   x coordinate   1.4710

     Plottable bands (eV) written to file diamond.bands.gnu
     Bands written to file diamond.bands

 **************************************************************************

                    xk=(   0.00000,   0.00000,   0.00000  )

     point group C_s (m)    
     there are  2 classes
     the character table:

       E     s    
A'     1.00  1.00
A''    1.00 -1.00

     the symmetry operations in each class and the name of the first element:

     E        1
                                                                 
     s        2
                                                                 

     Band symmetry, C_s (m)     point group:

     e(  1 -  1) =    -19.83290  eV     1   --> A'             
     e(  2 -  2) =    -18.53604  eV     1   --> A'             
     e(  3 -  3) =    -16.50870  eV     1   --> A'             
     e(  4 -  4) =    -14.88817  eV     1   --> A'             
     e(  5 -  5) =     -9.33430  eV     1   --> A'             
     e(  6 -  6) =     -5.89385  eV     1   --> A'             
     e(  7 -  7) =     -1.93295  eV     1   --> A'             
     e(  8 -  8) =     -1.33388  eV     1   --> A''            
     e(  9 -  9) =     -1.33352  eV     1   --> A'             
     e( 10 - 10) =     -0.36936  eV     1   --> A''            
     e( 11 - 11) =     -0.36903  eV     1   --> A'             
     e( 12 - 12) =      0.86894  eV     1   --> A''            
     e( 13 - 13) =      0.86924  eV     1   --> A'             
     e( 14 - 14) =      1.25079  eV     1   --> A''            
     e( 15 - 15) =      1.25106  eV     1   --> A'             
     e( 16 - 16) =      2.02394  eV     1   --> A'             

 **************************************************************************

 **************************************************************************

                    xk=(   0.01110,   0.00641,   0.00000  )

     point group C_1 (1)    
     there are  1 classes
     the character table:

       E    
A      1.00

     the symmetry operations in each class and the name of the first element:

     E        1
                                                                 

     Band symmetry, C_1 (1)     point group:

     e(  1 -  1) =    -19.82990  eV     1   --> A              
     e(  2 -  2) =    -18.53304  eV     1   --> A              
     e(  3 -  3) =    -16.50577  eV     1   --> A              
     e(  4 -  4) =    -14.88541  eV     1   --> A              
     e(  5 -  5) =     -9.33133  eV     1   --> A              
     e(  6 -  6) =     -5.89108  eV     1   --> A              
     e(  7 -  7) =     -1.93094  eV     1   --> A              
     e(  8 -  8) =     -1.35100  eV     1   --> A              
     e(  9 -  9) =     -1.34037  eV     1   --> A              
     e( 10 - 10) =     -0.38439  eV     1   --> A              
     e( 11 - 11) =     -0.37534  eV     1   --> A              
     e( 12 - 12) =      0.85484  eV     1   --> A              
     e( 13 - 13) =      0.86309  eV     1   --> A              
     e( 14 - 14) =      1.23877  eV     1   --> A              
     e( 15 - 15) =      1.24543  eV     1   --> A              
     e( 16 - 16) =      2.02669  eV     1   --> A              

 **************************************************************************

 **************************************************************************

                    xk=(   0.02220,   0.01282,   0.00000  )

     Band symmetry, C_1 (1)     point group:

     e(  1 -  1) =    -19.82079  eV     1   --> A              
     e(  2 -  2) =    -18.52403  eV     1   --> A              
     e(  3 -  3) =    -16.49697  eV     1   --> A              
     e(  4 -  4) =    -14.87712  eV     1   --> A              
     e(  5 -  5) =     -9.32240  eV     1   --> A              
     e(  6 -  6) =     -5.88279  eV     1   --> A              
     e(  7 -  7) =     -1.92499  eV     1   --> A              
     e(  8 -  8) =     -1.40233  eV     1   --> A              
     e(  9 -  9) =     -1.36065  eV     1   --> A              
     e( 10 - 10) =     -0.42977  eV     1   --> A              
     e( 11 - 11) =     -0.39474  eV     1   --> A              
     e( 12 - 12) =      0.81263  eV     1   --> A              
     e( 13 - 13) =      0.84501  eV     1   --> A              
     e( 14 - 14) =      1.20260  eV     1   --> A              
     e( 15 - 15) =      1.22862  eV     1   --> A              
     e( 16 - 16) =      2.03495  eV     1   --> A              

 **************************************************************************

 **************************************************************************

                    xk=(   0.03330,   0.01923,   0.00000  )

     Band symmetry, C_1 (1)     point group:

     e(  1 -  1) =    -19.80566  eV     1   --> A              
     e(  2 -  2) =    -18.50902  eV     1   --> A              
     e(  3 -  3) =    -16.48231  eV     1   --> A              
     e(  4 -  4) =    -14.86330  eV     1   --> A              
     e(  5 -  5) =     -9.30752  eV     1   --> A              
     e(  6 -  6) =     -5.86899  eV     1   --> A              
     e(  7 -  7) =     -1.91547  eV     1   --> A              
     e(  8 -  8) =     -1.48680  eV     1   --> A              
     e(  9 -  9) =     -1.39445  eV     1   --> A              
     e( 10 - 10) =     -0.50410  eV     1   --> A              
     e( 11 - 11) =     -0.42672  eV     1   --> A              
     e( 12 - 12) =      0.74316  eV     1   --> A              
     e( 13 - 13) =      0.81512  eV     1   --> A              
     e( 14 - 14) =      1.14286  eV     1   --> A              
     e( 15 - 15) =      1.20089  eV     1   --> A              
     e( 16 - 16) =      2.04852  eV     1   --> A              

 **************************************************************************

 **************************************************************************

                    xk=(   0.04440,   0.02564,   0.00000  )

     Band symmetry, C_1 (1)     point group:

     e(  1 -  1) =    -19.78445  eV     1   --> A              
     e(  2 -  2) =    -18.48800  eV     1   --> A              
     e(  3 -  3) =    -16.46179  eV     1   --> A              
     e(  4 -  4) =    -14.84396  eV     1   --> A              
     e(  5 -  5) =     -9.28672  eV     1   --> A              
     e(  6 -  6) =     -5.84974  eV     1   --> A              
     e(  7 -  7) =     -1.90310  eV     1   --> A              
     e(  8 -  8) =     -1.60228  eV     1   --> A              
     e(  9 -  9) =     -1.44073  eV     1   --> A              
     e( 10 - 10) =     -0.60522  eV     1   --> A              
     e( 11 - 11) =     -0.47070  eV     1   --> A              
     e( 12 - 12) =      0.64748  eV     1   --> A              
     e( 13 - 13) =      0.77398  eV     1   --> A              
     e( 14 - 14) =      1.06039  eV     1   --> A              
     e( 15 - 15) =      1.16266  eV     1   --> A              
     e( 16 - 16) =      2.06724  eV     1   --> A              

 **************************************************************************

 **************************************************************************

                    xk=(   0.05550,   0.03204,   0.00000  )

     Band symmetry, C_1 (1)     point group:

     e(  1 -  1) =    -19.75717  eV     1   --> A              
     e(  2 -  2) =    -18.46100  eV     1   --> A              
     e(  3 -  3) =    -16.43540  eV     1   --> A              
     e(  4 -  4) =    -14.81910  eV     1   --> A              
     e(  5 -  5) =     -9.26000  eV     1   --> A              
     e(  6 -  6) =     -5.82504  eV     1   --> A              
     e(  7 -  7) =     -1.88937  eV     1   --> A              
     e(  8 -  8) =     -1.74647  eV     1   --> A              
     e(  9 -  9) =     -1.49895  eV     1   --> A              
     e( 10 - 10) =     -0.73021  eV     1   --> A              
     e( 11 - 11) =     -0.52610  eV     1   --> A              
     e( 12 - 12) =      0.52716  eV     1   --> A              
     e( 13 - 13) =      0.72222  eV     1   --> A              
     e( 14 - 14) =      0.95621  eV     1   --> A              
     e( 15 - 15) =      1.11445  eV     1   --> A              
     e( 16 - 16) =      2.09107  eV     1   --> A              

 **************************************************************************

 **************************************************************************

                    xk=(   0.06660,   0.03845,   0.00000  )

     Band symmetry, C_1 (1)     point group:

     e(  1 -  1) =    -19.72383  eV     1   --> A              
     e(  2 -  2) =    -18.42798  eV     1   --> A              
     e(  3 -  3) =    -16.40317  eV     1   --> A              
     e(  4 -  4) =    -14.78872  eV     1   --> A              
     e(  5 -  5) =     -9.22739  eV     1   --> A              
     e(  6 -  6) =     -5.79497  eV     1   --> A              
     e(  7 -  7) =     -1.92270  eV     1   --> A              
     e(  8 -  8) =     -1.87078  eV     1   --> A              
     e(  9 -  9) =     -1.56793  eV     1   --> A              
     e( 10 - 10) =     -0.87446  eV     1   --> A              
     e( 11 - 11) =     -0.59180  eV     1   --> A              
     e( 12 - 12) =      0.38395  eV     1   --> A              
     e( 13 - 13) =      0.66071  eV     1   --> A              
     e( 14 - 14) =      0.83163  eV     1   --> A              
     e( 15 - 15) =      1.05704  eV     1   --> A              
     e( 16 - 16) =      2.11971  eV     1   --> A              

 **************************************************************************

 **************************************************************************

                    xk=(   0.07770,   0.04486,   0.00000  )

     Band symmetry, C_1 (1)     point group:

     e(  1 -  1) =    -19.68449  eV     1   --> A              
     e(  2 -  2) =    -18.38900  eV     1   --> A              
     e(  3 -  3) =    -16.36509  eV     1   --> A              
     e(  4 -  4) =    -14.75283  eV     1   --> A              
     e(  5 -  5) =     -9.18892  eV     1   --> A              
     e(  6 -  6) =     -5.75967  eV     1   --> A              
     e(  7 -  7) =     -2.11549  eV     1   --> A              
     e(  8 -  8) =     -1.86569  eV     1   --> A              
     e(  9 -  9) =     -1.64668  eV     1   --> A              
     e( 10 - 10) =     -1.03093  eV     1   --> A              
     e( 11 - 11) =     -0.66700  eV     1   --> A              
     e( 12 - 12) =      0.21966  eV     1   --> A              
     e( 13 - 13) =      0.59006  eV     1   --> A              
     e( 14 - 14) =      0.68796  eV     1   --> A              
     e( 15 - 15) =      0.99109  eV     1   --> A              
     e( 16 - 16) =      2.15267  eV     1   --> A              

 **************************************************************************

 **************************************************************************

                    xk=(   0.08880,   0.05127,   0.00000  )

     Band symmetry, C_1 (1)     point group:

     e(  1 -  1) =    -19.63909  eV     1   --> A              
     e(  2 -  2) =    -18.34402  eV     1   --> A              
     e(  3 -  3) =    -16.32118  eV     1   --> A              
     e(  4 -  4) =    -14.71145  eV     1   --> A              
     e(  5 -  5) =     -9.14464  eV     1   --> A              
     e(  6 -  6) =     -5.71917  eV     1   --> A              
     e(  7 -  7) =     -2.33191  eV     1   --> A              
     e(  8 -  8) =     -1.87451  eV     1   --> A              
     e(  9 -  9) =     -1.73424  eV     1   --> A              
     e( 10 - 10) =     -1.18621  eV     1   --> A              
     e( 11 - 11) =     -0.75073  eV     1   --> A              
     e( 12 - 12) =      0.03630  eV     1   --> A              
     e( 13 - 13) =      0.51125  eV     1   --> A              
     e( 14 - 14) =      0.52670  eV     1   --> A              
     e( 15 - 15) =      0.91744  eV     1   --> A              
     e( 16 - 16) =      2.19030  eV     1   --> A              

 **************************************************************************

 **************************************************************************

                    xk=(   0.09990,   0.05768,   0.00000  )

     Band symmetry, C_1 (1)     point group:

     e(  1 -  1) =    -19.58769  eV     1   --> A              
     e(  2 -  2) =    -18.29310  eV     1   --> A              
     e(  3 -  3) =    -16.27145  eV     1   --> A              
     e(  4 -  4) =    -14.66458  eV     1   --> A              
     e(  5 -  5) =     -9.09459  eV     1   --> A              
     e(  6 -  6) =     -5.67367  eV     1   --> A              
     e(  7 -  7) =     -2.56754  eV     1   --> A              
     e(  8 -  8) =     -1.92199  eV     1   --> A              
     e(  9 -  9) =     -1.82953  eV     1   --> A              
     e( 10 - 10) =     -1.31581  eV     1   --> A              
     e( 11 - 11) =     -0.84187  eV     1   --> A              
     e( 12 - 12) =     -0.16415  eV     1   --> A              
     e( 13 - 13) =      0.34929  eV     1   --> A              
     e( 14 - 14) =      0.42535  eV     1   --> A              
     e( 15 - 15) =      0.83695  eV     1   --> A              
     e( 16 - 16) =      2.23224  eV     1   --> A              

 **************************************************************************

 **************************************************************************

                    xk=(   0.11100,   0.06409,   0.00000  )

     Band symmetry, C_1 (1)     point group:

     e(  1 -  1) =    -19.53027  eV     1   --> A              
     e(  2 -  2) =    -18.23621  eV     1   --> A              
     e(  3 -  3) =    -16.21591  eV     1   --> A              
     e(  4 -  4) =    -14.61223  eV     1   --> A              
     e(  5 -  5) =     -9.03883  eV     1   --> A              
     e(  6 -  6) =     -5.62338  eV     1   --> A              
     e(  7 -  7) =     -2.81950  eV     1   --> A              
     e(  8 -  8) =     -2.03528  eV     1   --> A              
     e(  9 -  9) =     -1.93146  eV     1   --> A              
     e( 10 - 10) =     -1.39053  eV     1   --> A              
     e( 11 - 11) =     -0.93940  eV     1   --> A              
     e( 12 - 12) =     -0.37951  eV     1   --> A              
     e( 13 - 13) =      0.15735  eV     1   --> A              
     e( 14 - 14) =      0.33325  eV     1   --> A              
     e( 15 - 15) =      0.75049  eV     1   --> A              
     e( 16 - 16) =      2.27842  eV     1   --> A              

 **************************************************************************

 **************************************************************************

                    xk=(   0.12210,   0.07050,   0.00000  )

     Band symmetry, C_1 (1)     point group:

     e(  1 -  1) =    -19.46684  eV     1   --> A              
     e(  2 -  2) =    -18.17337  eV     1   --> A              
     e(  3 -  3) =    -16.15457  eV     1   --> A              
     e(  4 -  4) =    -14.55443  eV     1   --> A              
     e(  5 -  5) =     -8.97746  eV     1   --> A              
     e(  6 -  6) =     -5.56864  eV     1   --> A              
     e(  7 -  7) =     -3.08548  eV     1   --> A              
     e(  8 -  8) =     -2.21572  eV     1   --> A              
     e(  9 -  9) =     -2.03867  eV     1   --> A              
     e( 10 - 10) =     -1.40718  eV     1   --> A              
     e( 11 - 11) =     -1.04231  eV     1   --> A              
     e( 12 - 12) =     -0.60798  eV     1   --> A              
     e( 13 - 13) =     -0.04769  eV     1   --> A              
     e( 14 - 14) =      0.23586  eV     1   --> A              
     e( 15 - 15) =      0.65894  eV     1   --> A              
     e( 16 - 16) =      2.32877  eV     1   --> A              

 **************************************************************************

 **************************************************************************

                    xk=(   0.13320,   0.07691,   0.00000  )

     Band symmetry, C_1 (1)     point group:

     e(  1 -  1) =    -19.39742  eV     1   --> A              
     e(  2 -  2) =    -18.10461  eV     1   --> A              
     e(  3 -  3) =    -16.08742  eV     1   --> A              
     e(  4 -  4) =    -14.49113  eV     1   --> A              
     e(  5 -  5) =     -8.91048  eV     1   --> A              
     e(  6 -  6) =     -5.50982  eV     1   --> A              
     e(  7 -  7) =     -3.36327  eV     1   --> A              
     e(  8 -  8) =     -2.44137  eV     1   --> A              
     e(  9 -  9) =     -2.15030  eV     1   --> A              
     e( 10 - 10) =     -1.38620  eV     1   --> A              
     e( 11 - 11) =     -1.14954  eV     1   --> A              
     e( 12 - 12) =     -0.84730  eV     1   --> A              
     e( 13 - 13) =     -0.26441  eV     1   --> A              
     e( 14 - 14) =      0.13424  eV     1   --> A              
     e( 15 - 15) =      0.56317  eV     1   --> A              
     e( 16 - 16) =      2.38317  eV     1   --> A              

 **************************************************************************

 **************************************************************************

                    xk=(   0.14430,   0.08332,   0.00000  )

     Band symmetry, C_1 (1)     point group:

     e(  1 -  1) =    -19.32202  eV     1   --> A              
     e(  2 -  2) =    -18.02994  eV     1   --> A              
     e(  3 -  3) =    -16.01453  eV     1   --> A              
     e(  4 -  4) =    -14.42244  eV     1   --> A              
     e(  5 -  5) =     -8.83806  eV     1   --> A              
     e(  6 -  6) =     -5.44768  eV     1   --> A              
     e(  7 -  7) =     -3.65063  eV     1   --> A              
     e(  8 -  8) =     -2.69424  eV     1   --> A              
     e(  9 -  9) =     -2.26532  eV     1   --> A              
     e( 10 - 10) =     -1.34586  eV     1   --> A              
     e( 11 - 11) =     -1.26021  eV     1   --> A              
     e( 12 - 12) =     -1.09372  eV     1   --> A              
     e( 13 - 13) =     -0.49183  eV     1   --> A              
     e( 14 - 14) =      0.02916  eV     1   --> A              
     e( 15 - 15) =      0.46393  eV     1   --> A              
     e( 16 - 16) =      2.44151  eV     1   --> A              

 **************************************************************************

 **************************************************************************

                    xk=(   0.15540,   0.08972,   0.00000  )

     Band symmetry, C_1 (1)     point group:

     e(  1 -  1) =    -19.24066  eV     1   --> A              
     e(  2 -  2) =    -17.94938  eV     1   --> A              
     e(  3 -  3) =    -15.93589  eV     1   --> A              
     e(  4 -  4) =    -14.34828  eV     1   --> A              
     e(  5 -  5) =     -8.76022  eV     1   --> A              
     e(  6 -  6) =     -5.38345  eV     1   --> A              
     e(  7 -  7) =     -3.94511  eV     1   --> A              
     e(  8 -  8) =     -2.96471  eV     1   --> A              
     e(  9 -  9) =     -2.38281  eV     1   --> A              
     e( 10 - 10) =     -1.37559  eV     1   --> A              
     e( 11 - 11) =     -1.37352  eV     1   --> A              
     e( 12 - 12) =     -1.26424  eV     1   --> A              
     e( 13 - 13) =     -0.72818  eV     1   --> A              
     e( 14 - 14) =     -0.07858  eV     1   --> A              
     e( 15 - 15) =      0.36202  eV     1   --> A              
     e( 16 - 16) =      2.50365  eV     1   --> A              

 **************************************************************************

 **************************************************************************

                    xk=(   0.16650,   0.09613,   0.00000  )

     Band symmetry, C_1 (1)     point group:

     e(  1 -  1) =    -19.15335  eV     1   --> A              
     e(  2 -  2) =    -17.86292  eV     1   --> A              
     e(  3 -  3) =    -15.85152  eV     1   --> A              
     e(  4 -  4) =    -14.26875  eV     1   --> A              
     e(  5 -  5) =     -8.67723  eV     1   --> A              
     e(  6 -  6) =     -5.31964  eV     1   --> A              
     e(  7 -  7) =     -4.24352  eV     1   --> A              
     e(  8 -  8) =     -3.24708  eV     1   --> A              
     e(  9 -  9) =     -2.50199  eV     1   --> A              
     e( 10 - 10) =     -1.62623  eV     1   --> A              
     e( 11 - 11) =     -1.48841  eV     1   --> A              
     e( 12 - 12) =     -1.21009  eV     1   --> A              
     e( 13 - 13) =     -0.97231  eV     1   --> A              
     e( 14 - 14) =     -0.18802  eV     1   --> A              
     e( 15 - 15) =      0.25817  eV     1   --> A              
     e( 16 - 16) =      2.56946  eV     1   --> A              

 **************************************************************************

 **************************************************************************

                    xk=(   0.17760,   0.10254,   0.00000  )

     Band symmetry, C_1 (1)     point group:

     e(  1 -  1) =    -19.06012  eV     1   --> A              
     e(  2 -  2) =    -17.77062  eV     1   --> A              
     e(  3 -  3) =    -15.76145  eV     1   --> A              
     e(  4 -  4) =    -14.18383  eV     1   --> A              
     e(  5 -  5) =     -8.58920  eV     1   --> A              
     e(  6 -  6) =     -5.26302  eV     1   --> A              
     e(  7 -  7) =     -4.53873  eV     1   --> A              
     e(  8 -  8) =     -3.53803  eV     1   --> A              
     e(  9 -  9) =     -2.62207  eV     1   --> A              
     e( 10 - 10) =     -1.89270  eV     1   --> A              
     e( 11 - 11) =     -1.60440  eV     1   --> A              
     e( 12 - 12) =     -1.22404  eV     1   --> A              
     e( 13 - 13) =     -1.13549  eV     1   --> A              
     e( 14 - 14) =     -0.29872  eV     1   --> A              
     e( 15 - 15) =      0.15306  eV     1   --> A              
     e( 16 - 16) =      2.63891  eV     1   --> A              

 **************************************************************************

 **************************************************************************

                    xk=(   0.18870,   0.10895,   0.00000  )

     Band symmetry, C_1 (1)     point group:

     e(  1 -  1) =    -18.96100  eV     1   --> A              
     e(  2 -  2) =    -17.67249  eV     1   --> A              
     e(  3 -  3) =    -15.66572  eV     1   --> A              
     e(  4 -  4) =    -14.09358  eV     1   --> A              
     e(  5 -  5) =     -8.49640  eV     1   --> A              
     e(  6 -  6) =     -5.23993  eV     1   --> A              
     e(  7 -  7) =     -4.80500  eV     1   --> A              
     e(  8 -  8) =     -3.83483  eV     1   --> A              
     e(  9 -  9) =     -2.74234  eV     1   --> A              
     e( 10 - 10) =     -2.16254  eV     1   --> A              
     e( 11 - 11) =     -1.72073  eV     1   --> A              
     e( 12 - 12) =     -1.48034  eV     1   --> A              
     e( 13 - 13) =     -1.05436  eV     1   --> A              
     e( 14 - 14) =     -0.40996  eV     1   --> A              
     e( 15 - 15) =      0.04729  eV     1   --> A              
     e( 16 - 16) =      2.71146  eV     1   --> A              

 **************************************************************************

 **************************************************************************

                    xk=(   0.19980,   0.11536,   0.00000  )

     Band symmetry, C_1 (1)     point group:

     e(  1 -  1) =    -18.85599  eV     1   --> A              
     e(  2 -  2) =    -17.56857  eV     1   --> A              
     e(  3 -  3) =    -15.56434  eV     1   --> A              
     e(  4 -  4) =    -13.99799  eV     1   --> A              
     e(  5 -  5) =     -8.39907  eV     1   --> A              
     e(  6 -  6) =     -5.34935  eV     1   --> A              
     e(  7 -  7) =     -4.94542  eV     1   --> A              
     e(  8 -  8) =     -4.13414  eV     1   --> A              
     e(  9 -  9) =     -2.86212  eV     1   --> A              
     e( 10 - 10) =     -2.43191  eV     1   --> A              
     e( 11 - 11) =     -1.83679  eV     1   --> A              
     e( 12 - 12) =     -1.74138  eV     1   --> A              
     e( 13 - 13) =     -0.96640  eV     1   --> A              
     e( 14 - 14) =     -0.52104  eV     1   --> A              
     e( 15 - 15) =     -0.05846  eV     1   --> A              
     e( 16 - 16) =      2.78718  eV     1   --> A              

 **************************************************************************

 **************************************************************************

                    xk=(   0.21090,   0.12177,   0.00000  )

     Band symmetry, C_1 (1)     point group:

     e(  1 -  1) =    -18.74518  eV     1   --> A              
     e(  2 -  2) =    -17.45890  eV     1   --> A              
     e(  3 -  3) =    -15.45736  eV     1   --> A              
     e(  4 -  4) =    -13.89711  eV     1   --> A              
     e(  5 -  5) =     -8.29759  eV     1   --> A              
     e(  6 -  6) =     -5.61044  eV     1   --> A              
     e(  7 -  7) =     -4.94806  eV     1   --> A              
     e(  8 -  8) =     -4.42928  eV     1   --> A              
     e(  9 -  9) =     -2.98104  eV     1   --> A              
     e( 10 - 10) =     -2.69717  eV     1   --> A              
     e( 11 - 11) =     -2.00602  eV     1   --> A              
     e( 12 - 12) =     -1.95207  eV     1   --> A              
     e( 13 - 13) =     -0.87277  eV     1   --> A              
     e( 14 - 14) =     -0.63143  eV     1   --> A              
     e( 15 - 15) =     -0.16379  eV     1   --> A              
     e( 16 - 16) =      2.86519  eV     1   --> A              

 **************************************************************************

 **************************************************************************

                    xk=(   0.22200,   0.12818,   0.00000  )

     Band symmetry, C_1 (1)     point group:

     e(  1 -  1) =    -18.62854  eV     1   --> A              
     e(  2 -  2) =    -17.34348  eV     1   --> A              
     e(  3 -  3) =    -15.34481  eV     1   --> A              
     e(  4 -  4) =    -13.79094  eV     1   --> A              
     e(  5 -  5) =     -8.19243  eV     1   --> A              
     e(  6 -  6) =     -5.91710  eV     1   --> A              
     e(  7 -  7) =     -4.95615  eV     1   --> A              
     e(  8 -  8) =     -4.68571  eV     1   --> A              
     e(  9 -  9) =     -3.09834  eV     1   --> A              
     e( 10 - 10) =     -2.95277  eV     1   --> A              
     e( 11 - 11) =     -2.27314  eV     1   --> A              
     e( 12 - 12) =     -2.06586  eV     1   --> A              
     e( 13 - 13) =     -0.77374  eV     1   --> A              
     e( 14 - 14) =     -0.74064  eV     1   --> A              
     e( 15 - 15) =     -0.26812  eV     1   --> A              
     e( 16 - 16) =      2.94533  eV     1   --> A              

 **************************************************************************

 **************************************************************************

                    xk=(   0.23310,   0.13459,   0.00000  )

     Band symmetry, C_1 (1)     point group:

     e(  1 -  1) =    -18.50615  eV     1   --> A              
     e(  2 -  2) =    -17.22239  eV     1   --> A              
     e(  3 -  3) =    -15.22672  eV     1   --> A              
     e(  4 -  4) =    -13.67957  eV     1   --> A              
     e(  5 -  5) =     -8.08432  eV     1   --> A              
     e(  6 -  6) =     -6.23699  eV     1   --> A              
     e(  7 -  7) =     -5.13702  eV     1   --> A              
     e(  8 -  8) =     -4.77575  eV     1   --> A              
     e(  9 -  9) =     -3.21366  eV     1   --> A              
     e( 10 - 10) =     -3.19006  eV     1   --> A              
     e( 11 - 11) =     -2.54168  eV     1   --> A              
     e( 12 - 12) =     -2.17781  eV     1   --> A              
     e( 13 - 13) =     -0.84820  eV     1   --> A              
     e( 14 - 14) =     -0.66982  eV     1   --> A              
     e( 15 - 15) =     -0.37084  eV     1   --> A              
     e( 16 - 16) =      3.02622  eV     1   --> A              

 **************************************************************************

 **************************************************************************

                    xk=(   0.24420,   0.14100,   0.00000  )

     Band symmetry, C_1 (1)     point group:

     e(  1 -  1) =    -18.37803  eV     1   --> A              
     e(  2 -  2) =    -17.09564  eV     1   --> A              
     e(  3 -  3) =    -15.10316  eV     1   --> A              
     e(  4 -  4) =    -13.56303  eV     1   --> A              
     e(  5 -  5) =     -7.97427  eV     1   --> A              
     e(  6 -  6) =     -6.56139  eV     1   --> A              
     e(  7 -  7) =     -5.42347  eV     1   --> A              
     e(  8 -  8) =     -4.78529  eV     1   --> A              
     e(  9 -  9) =     -3.39456  eV     1   --> A              
     e( 10 - 10) =     -3.32657  eV     1   --> A              
     e( 11 - 11) =     -2.81067  eV     1   --> A              
     e( 12 - 12) =     -2.28753  eV     1   --> A              
     e( 13 - 13) =     -0.95374  eV     1   --> A              
     e( 14 - 14) =     -0.56122  eV     1   --> A              
     e( 15 - 15) =     -0.47194  eV     1   --> A              
     e( 16 - 16) =      3.10582  eV     1   --> A              

 **************************************************************************

 **************************************************************************

                    xk=(   0.25530,   0.14741,   0.00000  )

     Band symmetry, C_1 (1)     point group:

     e(  1 -  1) =    -18.24423  eV     1   --> A              
     e(  2 -  2) =    -16.96330  eV     1   --> A              
     e(  3 -  3) =    -14.97415  eV     1   --> A              
     e(  4 -  4) =    -13.44136  eV     1   --> A              
     e(  5 -  5) =     -7.86388  eV     1   --> A              
     e(  6 -  6) =     -6.88792  eV     1   --> A              
     e(  7 -  7) =     -5.72541  eV     1   --> A              
     e(  8 -  8) =     -4.82477  eV     1   --> A              
     e(  9 -  9) =     -3.54651  eV     1   --> A              
     e( 10 - 10) =     -3.43669  eV     1   --> A              
     e( 11 - 11) =     -3.07854  eV     1   --> A              
     e( 12 - 12) =     -2.39462  eV     1   --> A              
     e( 13 - 13) =     -1.05678  eV     1   --> A              
     e( 14 - 14) =     -0.57059  eV     1   --> A              
     e( 15 - 15) =     -0.44822  eV     1   --> A              
     e( 16 - 16) =      3.17844  eV     1   --> A              

 **************************************************************************

 **************************************************************************

                    xk=(   0.26640,   0.15381,   0.00000  )

     Band symmetry, C_1 (1)     point group:

     e(  1 -  1) =    -18.10481  eV     1   --> A              
     e(  2 -  2) =    -16.82542  eV     1   --> A              
     e(  3 -  3) =    -14.83978  eV     1   --> A              
     e(  4 -  4) =    -13.31459  eV     1   --> A              
     e(  5 -  5) =     -7.75588  eV     1   --> A              
     e(  6 -  6) =     -7.21515  eV     1   --> A              
     e(  7 -  7) =     -6.02742  eV     1   --> A              
     e(  8 -  8) =     -4.92494  eV     1   --> A              
     e(  9 -  9) =     -3.63080  eV     1   --> A              
     e( 10 - 10) =     -3.54399  eV     1   --> A              
     e( 11 - 11) =     -3.34184  eV     1   --> A              
     e( 12 - 12) =     -2.49897  eV     1   --> A              
     e( 13 - 13) =     -1.15721  eV     1   --> A              
     e( 14 - 14) =     -0.66701  eV     1   --> A              
     e( 15 - 15) =     -0.33105  eV     1   --> A              
     e( 16 - 16) =      3.22287  eV     1   --> A              

 **************************************************************************

 **************************************************************************

                    xk=(   0.27750,   0.16022,   0.00000  )

     Band symmetry, C_1 (1)     point group:

     e(  1 -  1) =    -17.95984  eV     1   --> A              
     e(  2 -  2) =    -16.68207  eV     1   --> A              
     e(  3 -  3) =    -14.70012  eV     1   --> A              
     e(  4 -  4) =    -13.18284  eV     1   --> A              
     e(  5 -  5) =     -7.65608  eV     1   --> A              
     e(  6 -  6) =     -7.54147  eV     1   --> A              
     e(  7 -  7) =     -6.32198  eV     1   --> A              
     e(  8 -  8) =     -5.08853  eV     1   --> A              
     e(  9 -  9) =     -3.67939  eV     1   --> A              
     e( 10 - 10) =     -3.64758  eV     1   --> A              
     e( 11 - 11) =     -3.56671  eV     1   --> A              
     e( 12 - 12) =     -2.59987  eV     1   --> A              
     e( 13 - 13) =     -1.25458  eV     1   --> A              
     e( 14 - 14) =     -0.76052  eV     1   --> A              
     e( 15 - 15) =     -0.20999  eV     1   --> A              
     e( 16 - 16) =      3.16207  eV     1   --> A              

 **************************************************************************

 **************************************************************************

                    xk=(   0.28860,   0.16663,   0.00000  )

     Band symmetry, C_1 (1)     point group:

     e(  1 -  1) =    -17.80937  eV     1   --> A              
     e(  2 -  2) =    -16.53334  eV     1   --> A              
     e(  3 -  3) =    -14.55525  eV     1   --> A              
     e(  4 -  4) =    -13.04616  eV     1   --> A              
     e(  5 -  5) =     -7.86853  eV     1   --> A              
     e(  6 -  6) =     -7.57430  eV     1   --> A              
     e(  7 -  7) =     -6.59720  eV     1   --> A              
     e(  8 -  8) =     -5.29989  eV     1   --> A              
     e(  9 -  9) =     -3.88823  eV     1   --> A              
     e( 10 - 10) =     -3.74743  eV     1   --> A              
     e( 11 - 11) =     -3.57255  eV     1   --> A              
     e( 12 - 12) =     -2.69713  eV     1   --> A              
     e( 13 - 13) =     -1.34860  eV     1   --> A              
     e( 14 - 14) =     -0.85116  eV     1   --> A              
     e( 15 - 15) =     -0.08533  eV     1   --> A              
     e( 16 - 16) =      2.96047  eV     1   --> A              

 **************************************************************************

 **************************************************************************

                    xk=(   0.29970,   0.17304,   0.00000  )

     Band symmetry, C_1 (1)     point group:

     e(  1 -  1) =    -17.65350  eV     1   --> A              
     e(  2 -  2) =    -16.37929  eV     1   --> A              
     e(  3 -  3) =    -14.40524  eV     1   --> A              
     e(  4 -  4) =    -12.90460  eV     1   --> A              
     e(  5 -  5) =     -8.19274  eV     1   --> A              
     e(  6 -  6) =     -7.54436  eV     1   --> A              
     e(  7 -  7) =     -6.82373  eV     1   --> A              
     e(  8 -  8) =     -5.54057  eV     1   --> A              
     e(  9 -  9) =     -4.13571  eV     1   --> A              
     e( 10 - 10) =     -3.84325  eV     1   --> A              
     e( 11 - 11) =     -3.49595  eV     1   --> A              
     e( 12 - 12) =     -2.79065  eV     1   --> A              
     e( 13 - 13) =     -1.43900  eV     1   --> A              
     e( 14 - 14) =     -0.93824  eV     1   --> A              
     e( 15 - 15) =      0.04271  eV     1   --> A              
     e( 16 - 16) =      2.70779  eV     1   --> A              

 **************************************************************************

 **************************************************************************

                    xk=(   0.31080,   0.17945,   0.00000  )

     Band symmetry, C_1 (1)     point group:

     e(  1 -  1) =    -17.49235  eV     1   --> A              
     e(  2 -  2) =    -16.22007  eV     1   --> A              
     e(  3 -  3) =    -14.25022  eV     1   --> A              
     e(  4 -  4) =    -12.75831  eV     1   --> A              
     e(  5 -  5) =     -8.51502  eV     1   --> A              
     e(  6 -  6) =     -7.62343  eV     1   --> A              
     e(  7 -  7) =     -6.94621  eV     1   --> A              
     e(  8 -  8) =     -5.79756  eV     1   --> A              
     e(  9 -  9) =     -4.37672  eV     1   --> A              
     e( 10 - 10) =     -3.93523  eV     1   --> A              
     e( 11 - 11) =     -3.39232  eV     1   --> A              
     e( 12 - 12) =     -2.88023  eV     1   --> A              
     e( 13 - 13) =     -1.52560  eV     1   --> A              
     e( 14 - 14) =     -1.02189  eV     1   --> A              
     e( 15 - 15) =      0.17343  eV     1   --> A              
     e( 16 - 16) =      2.44122  eV     1   --> A              

 **************************************************************************

 **************************************************************************

                    xk=(   0.32190,   0.18586,   0.00000  )

     Band symmetry, C_1 (1)     point group:

     e(  1 -  1) =    -17.32602  eV     1   --> A              
     e(  2 -  2) =    -16.05578  eV     1   --> A              
     e(  3 -  3) =    -14.09032  eV     1   --> A              
     e(  4 -  4) =    -12.60742  eV     1   --> A              
     e(  5 -  5) =     -8.83479  eV     1   --> A              
     e(  6 -  6) =     -7.82193  eV     1   --> A              
     e(  7 -  7) =     -6.95950  eV     1   --> A              
     e(  8 -  8) =     -6.06119  eV     1   --> A              
     e(  9 -  9) =     -4.60363  eV     1   --> A              
     e( 10 - 10) =     -4.02265  eV     1   --> A              
     e( 11 - 11) =     -3.27201  eV     1   --> A              
     e( 12 - 12) =     -2.96555  eV     1   --> A              
     e( 13 - 13) =     -1.60815  eV     1   --> A              
     e( 14 - 14) =     -1.10155  eV     1   --> A              
     e( 15 - 15) =      0.30655  eV     1   --> A              
     e( 16 - 16) =      2.17026  eV     1   --> A              

 **************************************************************************

 **************************************************************************

                    xk=(   0.33300,   0.19227,   0.00000  )

     Band symmetry, C_1 (1)     point group:

     e(  1 -  1) =    -17.15467  eV     1   --> A              
     e(  2 -  2) =    -15.88661  eV     1   --> A              
     e(  3 -  3) =    -13.92570  eV     1   --> A              
     e(  4 -  4) =    -12.45203  eV     1   --> A              
     e(  5 -  5) =     -9.15155  eV     1   --> A              
     e(  6 -  6) =     -8.08049  eV     1   --> A              
     e(  7 -  7) =     -6.93376  eV     1   --> A              
     e(  8 -  8) =     -6.32271  eV     1   --> A              
     e(  9 -  9) =     -4.80914  eV     1   --> A              
     e( 10 - 10) =     -4.10557  eV     1   --> A              
     e( 11 - 11) =     -3.14029  eV     1   --> A              
     e( 12 - 12) =     -3.04664  eV     1   --> A              
     e( 13 - 13) =     -1.68669  eV     1   --> A              
     e( 14 - 14) =     -1.17725  eV     1   --> A              
     e( 15 - 15) =      0.44146  eV     1   --> A              
     e( 16 - 16) =      1.89876  eV     1   --> A              

 **************************************************************************

 **************************************************************************

                    xk=(   0.33857,   0.17624,   0.00000  )

     Band symmetry, C_1 (1)     point group:

     e(  1 -  1) =    -17.19289  eV     1   --> A              
     e(  2 -  2) =    -15.92434  eV     1   --> A              
     e(  3 -  3) =    -13.96242  eV     1   --> A              
     e(  4 -  4) =    -12.48670  eV     1   --> A              
     e(  5 -  5) =     -9.07096  eV     1   --> A              
     e(  6 -  6) =     -8.01107  eV     1   --> A              
     e(  7 -  7) =     -6.93620  eV     1   --> A              
     e(  8 -  8) =     -6.25678  eV     1   --> A              
     e(  9 -  9) =     -4.75797  eV     1   --> A              
     e( 10 - 10) =     -4.11507  eV     1   --> A              
     e( 11 - 11) =     -3.17765  eV     1   --> A              
     e( 12 - 12) =     -3.04685  eV     1   --> A              
     e( 13 - 13) =     -1.69179  eV     1   --> A              
     e( 14 - 14) =     -1.18020  eV     1   --> A              
     e( 15 - 15) =      0.41246  eV     1   --> A              
     e( 16 - 16) =      1.96435  eV     1   --> A              

 **************************************************************************

 **************************************************************************

                    xk=(   0.34413,   0.16020,   0.00000  )

     Band symmetry, C_1 (1)     point group:

     e(  1 -  1) =    -17.22092  eV     1   --> A              
     e(  2 -  2) =    -15.95200  eV     1   --> A              
     e(  3 -  3) =    -13.98932  eV     1   --> A              
     e(  4 -  4) =    -12.51215  eV     1   --> A              
     e(  5 -  5) =     -8.98678  eV     1   --> A              
     e(  6 -  6) =     -7.93957  eV     1   --> A              
     e(  7 -  7) =     -6.93135  eV     1   --> A              
     e(  8 -  8) =     -6.18731  eV     1   --> A              
     e(  9 -  9) =     -4.70062  eV     1   --> A              
     e( 10 - 10) =     -4.18222  eV     1   --> A              
     e( 11 - 11) =     -3.22545  eV     1   --> A              
     e( 12 - 12) =     -3.08175  eV     1   --> A              
     e( 13 - 13) =     -1.74407  eV     1   --> A              
     e( 14 - 14) =     -1.22481  eV     1   --> A              
     e( 15 - 15) =      0.39290  eV     1   --> A              
     e( 16 - 16) =      2.02505  eV     1   --> A              

 **************************************************************************

 **************************************************************************

                    xk=(   0.34970,   0.14417,   0.00000  )

     Band symmetry, C_1 (1)     point group:

     e(  1 -  1) =    -17.23873  eV     1   --> A              
     e(  2 -  2) =    -15.96955  eV     1   --> A              
     e(  3 -  3) =    -14.00640  eV     1   --> A              
     e(  4 -  4) =    -12.52834  eV     1   --> A              
     e(  5 -  5) =     -8.89982  eV     1   --> A              
     e(  6 -  6) =     -7.86683  eV     1   --> A              
     e(  7 -  7) =     -6.91872  eV     1   --> A              
     e(  8 -  8) =     -6.11529  eV     1   --> A              
     e(  9 -  9) =     -4.63806  eV     1   --> A              
     e( 10 - 10) =     -4.30156  eV     1   --> A              
     e( 11 - 11) =     -3.30748  eV     1   --> A              
     e( 12 - 12) =     -3.12288  eV     1   --> A              
     e( 13 - 13) =     -1.83970  eV     1   --> A              
     e( 14 - 14) =     -1.30867  eV     1   --> A              
     e( 15 - 15) =      0.38257  eV     1   --> A              
     e( 16 - 16) =      2.07958  eV     1   --> A              

 **************************************************************************

 **************************************************************************

                    xk=(   0.35527,   0.12814,   0.00000  )

     Band symmetry, C_1 (1)     point group:

     e(  1 -  1) =    -17.24631  eV     1   --> A              
     e(  2 -  2) =    -15.97699  eV     1   --> A              
     e(  3 -  3) =    -14.01364  eV     1   --> A              
     e(  4 -  4) =    -12.53528  eV     1   --> A              
     e(  5 -  5) =     -8.81136  eV     1   --> A              
     e(  6 -  6) =     -7.79394  eV     1   --> A              
     e(  7 -  7) =     -6.89803  eV     1   --> A              
     e(  8 -  8) =     -6.04192  eV     1   --> A              
     e(  9 -  9) =     -4.57131  eV     1   --> A              
     e( 10 - 10) =     -4.46548  eV     1   --> A              
     e( 11 - 11) =     -3.44234  eV     1   --> A              
     e( 12 - 12) =     -3.14507  eV     1   --> A              
     e( 13 - 13) =     -1.97285  eV     1   --> A              
     e( 14 - 14) =     -1.42747  eV     1   --> A              
     e( 15 - 15) =      0.38115  eV     1   --> A              
     e( 16 - 16) =      2.12635  eV     1   --> A              

 **************************************************************************

 **************************************************************************

                    xk=(   0.36083,   0.11211,   0.00000  )

     Band symmetry, C_1 (1)     point group:

     e(  1 -  1) =    -17.24364  eV     1   --> A              
     e(  2 -  2) =    -15.97433  eV     1   --> A              
     e(  3 -  3) =    -14.01105  eV     1   --> A              
     e(  4 -  4) =    -12.53296  eV     1   --> A              
     e(  5 -  5) =     -8.72321  eV     1   --> A              
     e(  6 -  6) =     -7.72258  eV     1   --> A              
     e(  7 -  7) =     -6.86951  eV     1   --> A              
     e(  8 -  8) =     -5.96931  eV     1   --> A              
     e(  9 -  9) =     -4.66520  eV     1   --> A              
     e( 10 - 10) =     -4.50184  eV     1   --> A              
     e( 11 - 11) =     -3.62077  eV     1   --> A              
     e( 12 - 12) =     -3.15002  eV     1   --> A              
     e( 13 - 13) =     -2.13656  eV     1   --> A              
     e( 14 - 14) =     -1.57595  eV     1   --> A              
     e( 15 - 15) =      0.38806  eV     1   --> A              
     e( 16 - 16) =      2.16344  eV     1   --> A              

 **************************************************************************

 **************************************************************************

                    xk=(   0.36640,   0.09608,   0.00000  )

     Band symmetry, C_1 (1)     point group:

     e(  1 -  1) =    -17.23075  eV     1   --> A              
     e(  2 -  2) =    -15.96157  eV     1   --> A              
     e(  3 -  3) =    -13.99864  eV     1   --> A              
     e(  4 -  4) =    -12.52137  eV     1   --> A              
     e(  5 -  5) =     -8.63811  eV     1   --> A              
     e(  6 -  6) =     -7.65464  eV     1   --> A              
     e(  7 -  7) =     -6.83389  eV     1   --> A              
     e(  8 -  8) =     -5.89981  eV     1   --> A              
     e(  9 -  9) =     -4.89082  eV     1   --> A              
     e( 10 - 10) =     -4.43189  eV     1   --> A              
     e( 11 - 11) =     -3.82825  eV     1   --> A              
     e( 12 - 12) =     -3.14350  eV     1   --> A              
     e( 13 - 13) =     -2.32239  eV     1   --> A              
     e( 14 - 14) =     -1.74812  eV     1   --> A              
     e( 15 - 15) =      0.40305  eV     1   --> A              
     e( 16 - 16) =      2.18846  eV     1   --> A              

 **************************************************************************

 **************************************************************************

                    xk=(   0.37197,   0.08004,   0.00000  )

     Band symmetry, C_1 (1)     point group:

     e(  1 -  1) =    -17.20764  eV     1   --> A              
     e(  2 -  2) =    -15.93870  eV     1   --> A              
     e(  3 -  3) =    -13.97640  eV     1   --> A              
     e(  4 -  4) =    -12.50053  eV     1   --> A              
     e(  5 -  5) =     -8.55975  eV     1   --> A              
     e(  6 -  6) =     -7.59260  eV     1   --> A              
     e(  7 -  7) =     -6.79257  eV     1   --> A              
     e(  8 -  8) =     -5.83694  eV     1   --> A              
     e(  9 -  9) =     -5.13177  eV     1   --> A              
     e( 10 - 10) =     -4.36511  eV     1   --> A              
     e( 11 - 11) =     -4.05154  eV     1   --> A              
     e( 12 - 12) =     -3.12943  eV     1   --> A              
     e( 13 - 13) =     -2.52009  eV     1   --> A              
     e( 14 - 14) =     -1.93678  eV     1   --> A              
     e( 15 - 15) =      0.42591  eV     1   --> A              
     e( 16 - 16) =      2.19912  eV     1   --> A              

 **************************************************************************

 **************************************************************************

                    xk=(   0.37753,   0.06401,   0.00000  )

     Band symmetry, C_1 (1)     point group:

     e(  1 -  1) =    -17.17436  eV     1   --> A              
     e(  2 -  2) =    -15.90579  eV     1   --> A              
     e(  3 -  3) =    -13.94437  eV     1   --> A              
     e(  4 -  4) =    -12.47045  eV     1   --> A              
     e(  5 -  5) =     -8.49366  eV     1   --> A              
     e(  6 -  6) =     -7.53981  eV     1   --> A              
     e(  7 -  7) =     -6.74784  eV     1   --> A              
     e(  8 -  8) =     -5.78539  eV     1   --> A              
     e(  9 -  9) =     -5.37656  eV     1   --> A              
     e( 10 - 10) =     -4.32796  eV     1   --> A              
     e( 11 - 11) =     -4.25603  eV     1   --> A              
     e( 12 - 12) =     -3.11380  eV     1   --> A              
     e( 13 - 13) =     -2.71487  eV     1   --> A              
     e( 14 - 14) =     -2.13358  eV     1   --> A              
     e( 15 - 15) =      0.45627  eV     1   --> A              
     e( 16 - 16) =      2.19311  eV     1   --> A              

 **************************************************************************

 **************************************************************************

                    xk=(   0.38310,   0.04798,   0.00000  )

     Band symmetry, C_1 (1)     point group:

     e(  1 -  1) =    -17.13092  eV     1   --> A              
     e(  2 -  2) =    -15.86286  eV     1   --> A              
     e(  3 -  3) =    -13.90261  eV     1   --> A              
     e(  4 -  4) =    -12.43118  eV     1   --> A              
     e(  5 -  5) =     -8.44768  eV     1   --> A              
     e(  6 -  6) =     -7.50112  eV     1   --> A              
     e(  7 -  7) =     -6.70316  eV     1   --> A              
     e(  8 -  8) =     -5.75188  eV     1   --> A              
     e(  9 -  9) =     -5.61200  eV     1   --> A              
     e( 10 - 10) =     -4.51376  eV     1   --> A              
     e( 11 - 11) =     -4.24190  eV     1   --> A              
     e( 12 - 12) =     -3.11872  eV     1   --> A              
     e( 13 - 13) =     -2.87463  eV     1   --> A              
     e( 14 - 14) =     -2.32849  eV     1   --> A              
     e( 15 - 15) =      0.49397  eV     1   --> A              
     e( 16 - 16) =      2.16803  eV     1   --> A              

 **************************************************************************

 **************************************************************************

                    xk=(   0.38867,   0.03195,   0.00000  )

     Band symmetry, C_1 (1)     point group:

     e(  1 -  1) =    -17.07737  eV     1   --> A              
     e(  2 -  2) =    -15.80995  eV     1   --> A              
     e(  3 -  3) =    -13.85115  eV     1   --> A              
     e(  4 -  4) =    -12.38277  eV     1   --> A              
     e(  5 -  5) =     -8.43205  eV     1   --> A              
     e(  6 -  6) =     -7.48349  eV     1   --> A              
     e(  7 -  7) =     -6.66253  eV     1   --> A              
     e(  8 -  8) =     -5.82639  eV     1   --> A              
     e(  9 -  9) =     -5.74159  eV     1   --> A              
     e( 10 - 10) =     -4.71294  eV     1   --> A              
     e( 11 - 11) =     -4.21333  eV     1   --> A              
     e( 12 - 12) =     -3.20046  eV     1   --> A              
     e( 13 - 13) =     -2.93157  eV     1   --> A              
     e( 14 - 14) =     -2.50856  eV     1   --> A              
     e( 15 - 15) =      0.53892  eV     1   --> A              
     e( 16 - 16) =      2.12161  eV     1   --> A              

 **************************************************************************

 **************************************************************************

                    xk=(   0.39423,   0.01592,   0.00000  )

     Band symmetry, C_1 (1)     point group:

     e(  1 -  1) =    -17.01377  eV     1   --> A              
     e(  2 -  2) =    -15.74713  eV     1   --> A              
     e(  3 -  3) =    -13.79006  eV     1   --> A              
     e(  4 -  4) =    -12.32525  eV     1   --> A              
     e(  5 -  5) =     -8.45895  eV     1   --> A              
     e(  6 -  6) =     -7.49672  eV     1   --> A              
     e(  7 -  7) =     -6.62948  eV     1   --> A              
     e(  8 -  8) =     -5.99911  eV     1   --> A              
     e(  9 -  9) =     -5.76877  eV     1   --> A              
     e( 10 - 10) =     -4.87741  eV     1   --> A              
     e( 11 - 11) =     -4.21486  eV     1   --> A              
     e( 12 - 12) =     -3.32495  eV     1   --> A              
     e( 13 - 13) =     -2.90891  eV     1   --> A              
     e( 14 - 14) =     -2.65739  eV     1   --> A              
     e( 15 - 15) =      0.59083  eV     1   --> A              
     e( 16 - 16) =      2.05277  eV     1   --> A              

 **************************************************************************

 **************************************************************************

                    xk=(   0.39980,  -0.00012,   0.00000  )

     Band symmetry, C_1 (1)     point group:

     e(  1 -  1) =    -16.94019  eV     1   --> A              
     e(  2 -  2) =    -15.67448  eV     1   --> A              
     e(  3 -  3) =    -13.71942  eV     1   --> A              
     e(  4 -  4) =    -12.25872  eV     1   --> A              
     e(  5 -  5) =     -8.53901  eV     1   --> A              
     e(  6 -  6) =     -7.55221  eV     1   --> A              
     e(  7 -  7) =     -6.60543  eV     1   --> A              
     e(  8 -  8) =     -6.12002  eV     1   --> A              
     e(  9 -  9) =     -5.83760  eV     1   --> A              
     e( 10 - 10) =     -4.99316  eV     1   --> A              
     e( 11 - 11) =     -4.25833  eV     1   --> A              
     e( 12 - 12) =     -3.42761  eV     1   --> A              
     e( 13 - 13) =     -2.86640  eV     1   --> A              
     e( 14 - 14) =     -2.75429  eV     1   --> A              
     e( 15 - 15) =      0.64951  eV     1   --> A              
     e( 16 - 16) =      1.96032  eV     1   --> A              

 **************************************************************************

 **************************************************************************

                    xk=(   0.40537,  -0.01615,   0.00000  )

     Band symmetry, C_1 (1)     point group:

     e(  1 -  1) =    -16.85672  eV     1   --> A              
     e(  2 -  2) =    -15.59206  eV     1   --> A              
     e(  3 -  3) =    -13.63929  eV     1   --> A              
     e(  4 -  4) =    -12.18322  eV     1   --> A              
     e(  5 -  5) =     -8.67710  eV     1   --> A              
     e(  6 -  6) =     -7.65917  eV     1   --> A              
     e(  7 -  7) =     -6.58920  eV     1   --> A              
     e(  8 -  8) =     -6.18263  eV     1   --> A              
     e(  9 -  9) =     -5.95241  eV     1   --> A              
     e( 10 - 10) =     -5.05351  eV     1   --> A              
     e( 11 - 11) =     -4.34701  eV     1   --> A              
     e( 12 - 12) =     -3.48923  eV     1   --> A              
     e( 13 - 13) =     -2.84686  eV     1   --> A              
     e( 14 - 14) =     -2.76136  eV     1   --> A              
     e( 15 - 15) =      0.71467  eV     1   --> A              
     e( 16 - 16) =      1.84435  eV     1   --> A              

 **************************************************************************

 **************************************************************************

                    xk=(   0.41093,  -0.03218,   0.00000  )

     Band symmetry, C_1 (1)     point group:

     e(  1 -  1) =    -16.76348  eV     1   --> A              
     e(  2 -  2) =    -15.50005  eV     1   --> A              
     e(  3 -  3) =    -13.54985  eV     1   --> A              
     e(  4 -  4) =    -12.09888  eV     1   --> A              
     e(  5 -  5) =     -8.86876  eV     1   --> A              
     e(  6 -  6) =     -7.81931  eV     1   --> A              
     e(  7 -  7) =     -6.58072  eV     1   --> A              
     e(  8 -  8) =     -6.18953  eV     1   --> A              
     e(  9 -  9) =     -6.11041  eV     1   --> A              
     e( 10 - 10) =     -5.06078  eV     1   --> A              
     e( 11 - 11) =     -4.47184  eV     1   --> A              
     e( 12 - 12) =     -3.50727  eV     1   --> A              
     e( 13 - 13) =     -2.83570  eV     1   --> A              
     e( 14 - 14) =     -2.70011  eV     1   --> A              
     e( 15 - 15) =      0.78583  eV     1   --> A              
     e( 16 - 16) =      1.70555  eV     1   --> A              

 **************************************************************************

 **************************************************************************

                    xk=(   0.41650,  -0.04821,   0.00000  )

     Band symmetry, C_1 (1)     point group:

     e(  1 -  1) =    -16.66060  eV     1   --> A              
     e(  2 -  2) =    -15.39854  eV     1   --> A              
     e(  3 -  3) =    -13.45119  eV     1   --> A              
     e(  4 -  4) =    -12.00584  eV     1   --> A              
     e(  5 -  5) =     -9.10343  eV     1   --> A              
     e(  6 -  6) =     -8.02592  eV     1   --> A              
     e(  7 -  7) =     -6.58901  eV     1   --> A              
     e(  8 -  8) =     -6.29993  eV     1   --> A              
     e(  9 -  9) =     -6.14903  eV     1   --> A              
     e( 10 - 10) =     -5.02514  eV     1   --> A              
     e( 11 - 11) =     -4.61360  eV     1   --> A              
     e( 12 - 12) =     -3.48569  eV     1   --> A              
     e( 13 - 13) =     -2.79454  eV     1   --> A              
     e( 14 - 14) =     -2.62174  eV     1   --> A              
     e( 15 - 15) =      0.86256  eV     1   --> A              
     e( 16 - 16) =      1.54579  eV     1   --> A              

 **************************************************************************

 **************************************************************************

                    xk=(   0.42207,  -0.06424,   0.00000  )

     Band symmetry, C_1 (1)     point group:

     e(  1 -  1) =    -16.54826  eV     1   --> A              
     e(  2 -  2) =    -15.28775  eV     1   --> A              
     e(  3 -  3) =    -13.34353  eV     1   --> A              
     e(  4 -  4) =    -11.90429  eV     1   --> A              
     e(  5 -  5) =     -9.36897  eV     1   --> A              
     e(  6 -  6) =     -8.26794  eV     1   --> A              
     e(  7 -  7) =     -6.65785  eV     1   --> A              
     e(  8 -  8) =     -6.47424  eV     1   --> A              
     e(  9 -  9) =     -6.07418  eV     1   --> A              
     e( 10 - 10) =     -4.96418  eV     1   --> A              
     e( 11 - 11) =     -4.74459  eV     1   --> A              
     e( 12 - 12) =     -3.43190  eV     1   --> A              
     e( 13 - 13) =     -2.72817  eV     1   --> A              
     e( 14 - 14) =     -2.53473  eV     1   --> A              
     e( 15 - 15) =      0.94418  eV     1   --> A              
     e( 16 - 16) =      1.36759  eV     1   --> A              

 **************************************************************************

 **************************************************************************

                    xk=(   0.42763,  -0.08028,   0.00000  )

     Band symmetry, C_1 (1)     point group:

     e(  1 -  1) =    -16.42669  eV     1   --> A              
     e(  2 -  2) =    -15.16792  eV     1   --> A              
     e(  3 -  3) =    -13.22713  eV     1   --> A              
     e(  4 -  4) =    -11.79444  eV     1   --> A              
     e(  5 -  5) =     -9.65478  eV     1   --> A              
     e(  6 -  6) =     -8.53434  eV     1   --> A              
     e(  7 -  7) =     -6.85431  eV     1   --> A              
     e(  8 -  8) =     -6.57003  eV     1   --> A              
     e(  9 -  9) =     -5.97425  eV     1   --> A              
     e( 10 - 10) =     -4.93869  eV     1   --> A              
     e( 11 - 11) =     -4.79384  eV     1   --> A              
     e( 12 - 12) =     -3.35409  eV     1   --> A              
     e( 13 - 13) =     -2.64516  eV     1   --> A              
     e( 14 - 14) =     -2.44137  eV     1   --> A              
     e( 15 - 15) =      1.02888  eV     1   --> A              
     e( 16 - 16) =      1.17469  eV     1   --> A              

 **************************************************************************

 **************************************************************************

                    xk=(   0.43320,  -0.09631,   0.00000  )

     Band symmetry, C_1 (1)     point group:

     e(  1 -  1) =    -16.29620  eV     1   --> A              
     e(  2 -  2) =    -15.03936  eV     1   --> A              
     e(  3 -  3) =    -13.10228  eV     1   --> A              
     e(  4 -  4) =    -11.67660  eV     1   --> A              
     e(  5 -  5) =     -9.95264  eV     1   --> A              
     e(  6 -  6) =     -8.81605  eV     1   --> A              
     e(  7 -  7) =     -7.10869  eV     1   --> A              
     e(  8 -  8) =     -6.65991  eV     1   --> A              
     e(  9 -  9) =     -5.85773  eV     1   --> A              
     e( 10 - 10) =     -4.98937  eV     1   --> A              
     e( 11 - 11) =     -4.71261  eV     1   --> A              
     e( 12 - 12) =     -3.25944  eV     1   --> A              
     e( 13 - 13) =     -2.55229  eV     1   --> A              
     e( 14 - 14) =     -2.34270  eV     1   --> A              
     e( 15 - 15) =      0.96517  eV     1   --> A              
     e( 16 - 16) =      1.12091  eV     1   --> A              

 **************************************************************************

 **************************************************************************

                    xk=(   0.43877,  -0.11234,   0.00000  )

     Band symmetry, C_1 (1)     point group:

     e(  1 -  1) =    -16.15716  eV     1   --> A              
     e(  2 -  2) =    -14.90244  eV     1   --> A              
     e(  3 -  3) =    -12.96934  eV     1   --> A              
     e(  4 -  4) =    -11.55119  eV     1   --> A              
     e(  5 -  5) =    -10.25622  eV     1   --> A              
     e(  6 -  6) =     -9.10599  eV     1   --> A              
     e(  7 -  7) =     -7.37951  eV     1   --> A              
     e(  8 -  8) =     -6.78370  eV     1   --> A              
     e(  9 -  9) =     -5.73069  eV     1   --> A              
     e( 10 - 10) =     -5.01770  eV     1   --> A              
     e( 11 - 11) =     -4.59737  eV     1   --> A              
     e( 12 - 12) =     -3.15368  eV     1   --> A              
     e( 13 - 13) =     -2.45428  eV     1   --> A              
     e( 14 - 14) =     -2.23958  eV     1   --> A              
     e( 15 - 15) =      0.75162  eV     1   --> A              
     e( 16 - 16) =      1.21019  eV     1   --> A              

 **************************************************************************

 **************************************************************************

                    xk=(   0.44433,  -0.12837,   0.00000  )

     Band symmetry, C_1 (1)     point group:

     e(  1 -  1) =    -16.01008  eV     1   --> A              
     e(  2 -  2) =    -14.75772  eV     1   --> A              
     e(  3 -  3) =    -12.82887  eV     1   --> A              
     e(  4 -  4) =    -11.41891  eV     1   --> A              
     e(  5 -  5) =    -10.56074  eV     1   --> A              
     e(  6 -  6) =     -9.39904  eV     1   --> A              
     e(  7 -  7) =     -7.65597  eV     1   --> A              
     e(  8 -  8) =     -6.94375  eV     1   --> A              
     e(  9 -  9) =     -5.59834  eV     1   --> A              
     e( 10 - 10) =     -5.00552  eV     1   --> A              
     e( 11 - 11) =     -4.47323  eV     1   --> A              
     e( 12 - 12) =     -3.04152  eV     1   --> A              
     e( 13 - 13) =     -2.35472  eV     1   --> A              
     e( 14 - 14) =     -2.13314  eV     1   --> A              
     e( 15 - 15) =      0.53275  eV     1   --> A              
     e( 16 - 16) =      1.29973  eV     1   --> A              

 **************************************************************************

 **************************************************************************

                    xk=(   0.44990,  -0.14440,   0.00000  )

     Band symmetry, C_1 (1)     point group:

     e(  1 -  1) =    -15.85564  eV     1   --> A              
     e(  2 -  2) =    -14.60588  eV     1   --> A              
     e(  3 -  3) =    -12.68158  eV     1   --> A              
     e(  4 -  4) =    -11.28166  eV     1   --> A              
     e(  5 -  5) =    -10.86130  eV     1   --> A              
     e(  6 -  6) =     -9.69108  eV     1   --> A              
     e(  7 -  7) =     -7.93270  eV     1   --> A              
     e(  8 -  8) =     -7.13226  eV     1   --> A              
     e(  9 -  9) =     -5.46489  eV     1   --> A              
     e( 10 - 10) =     -4.95849  eV     1   --> A              
     e( 11 - 11) =     -4.34714  eV     1   --> A              
     e( 12 - 12) =     -2.92721  eV     1   --> A              
     e( 13 - 13) =     -2.25674  eV     1   --> A              
     e( 14 - 14) =     -2.02459  eV     1   --> A              
     e( 15 - 15) =      0.31311  eV     1   --> A              
     e( 16 - 16) =      1.38577  eV     1   --> A              

 **************************************************************************

 **************************************************************************

                    xk=(   0.45547,  -0.16043,   0.00000  )

     Band symmetry, C_1 (1)     point group:

     e(  1 -  1) =    -15.69482  eV     1   --> A              
     e(  2 -  2) =    -14.44790  eV     1   --> A              
     e(  3 -  3) =    -12.52839  eV     1   --> A              
     e(  4 -  4) =    -11.19416  eV     1   --> A              
     e(  5 -  5) =    -11.10088  eV     1   --> A              
     e(  6 -  6) =     -9.97865  eV     1   --> A              
     e(  7 -  7) =     -8.20573  eV     1   --> A              
     e(  8 -  8) =     -7.33924  eV     1   --> A              
     e(  9 -  9) =     -5.33394  eV     1   --> A              
     e( 10 - 10) =     -4.88590  eV     1   --> A              
     e( 11 - 11) =     -4.22325  eV     1   --> A              
     e( 12 - 12) =     -2.81414  eV     1   --> A              
     e( 13 - 13) =     -2.16253  eV     1   --> A              
     e( 14 - 14) =     -1.91552  eV     1   --> A              
     e( 15 - 15) =      0.09709  eV     1   --> A              
     e( 16 - 16) =      1.46404  eV     1   --> A              

 **************************************************************************

 **************************************************************************

                    xk=(   0.46103,  -0.17647,   0.00000  )

     Band symmetry, C_1 (1)     point group:

     e(  1 -  1) =    -15.52899  eV     1   --> A              
     e(  2 -  2) =    -14.28523  eV     1   --> A              
     e(  3 -  3) =    -12.37074  eV     1   --> A              
     e(  4 -  4) =    -11.45653  eV     1   --> A              
     e(  5 -  5) =    -10.97777  eV     1   --> A              
     e(  6 -  6) =    -10.25854  eV     1   --> A              
     e(  7 -  7) =     -8.47161  eV     1   --> A              
     e(  8 -  8) =     -7.55598  eV     1   --> A              
     e(  9 -  9) =     -5.20884  eV     1   --> A              
     e( 10 - 10) =     -4.79678  eV     1   --> A              
     e( 11 - 11) =     -4.10513  eV     1   --> A              
     e( 12 - 12) =     -2.70553  eV     1   --> A              
     e( 13 - 13) =     -2.07416  eV     1   --> A              
     e( 14 - 14) =     -1.80825  eV     1   --> A              
     e( 15 - 15) =     -0.11071  eV     1   --> A              
     e( 16 - 16) =      1.52800  eV     1   --> A              

 **************************************************************************

 **************************************************************************

                    xk=(   0.46660,  -0.19250,   0.00000  )

     Band symmetry, C_1 (1)     point group:

     e(  1 -  1) =    -15.36016  eV     1   --> A              
     e(  2 -  2) =    -14.11988  eV     1   --> A              
     e(  3 -  3) =    -12.21066  eV     1   --> A              
     e(  4 -  4) =    -11.73207  eV     1   --> A              
     e(  5 -  5) =    -10.82741  eV     1   --> A              
     e(  6 -  6) =    -10.52733  eV     1   --> A              
     e(  7 -  7) =     -8.72656  eV     1   --> A              
     e(  8 -  8) =     -7.77506  eV     1   --> A              
     e(  9 -  9) =     -5.09274  eV     1   --> A              
     e( 10 - 10) =     -4.69880  eV     1   --> A              
     e( 11 - 11) =     -3.99575  eV     1   --> A              
     e( 12 - 12) =     -2.60412  eV     1   --> A              
     e( 13 - 13) =     -1.99355  eV     1   --> A              
     e( 14 - 14) =     -1.70585  eV     1   --> A              
     e( 15 - 15) =     -0.30493  eV     1   --> A              
     e( 16 - 16) =      1.56894  eV     1   --> A              

 **************************************************************************

 **************************************************************************

                    xk=(   0.47217,  -0.20853,   0.00000  )

     Band symmetry, C_1 (1)     point group:

     e(  1 -  1) =    -15.19145  eV     1   --> A              
     e(  2 -  2) =    -13.95496  eV     1   --> A              
     e(  3 -  3) =    -12.05131  eV     1   --> A              
     e(  4 -  4) =    -11.99325  eV     1   --> A              
     e(  5 -  5) =    -10.78073  eV     1   --> A              
     e(  6 -  6) =    -10.67645  eV     1   --> A              
     e(  7 -  7) =     -8.96595  eV     1   --> A              
     e(  8 -  8) =     -7.99000  eV     1   --> A              
     e(  9 -  9) =     -4.98852  eV     1   --> A              
     e( 10 - 10) =     -4.59895  eV     1   --> A              
     e( 11 - 11) =     -3.89789  eV     1   --> A              
     e( 12 - 12) =     -2.51249  eV     1   --> A              
     e( 13 - 13) =     -1.92225  eV     1   --> A              
     e( 14 - 14) =     -1.61289  eV     1   --> A              
     e( 15 - 15) =     -0.47912  eV     1   --> A              
     e( 16 - 16) =      1.57857  eV     1   --> A              

 **************************************************************************

 **************************************************************************

                    xk=(   0.47773,  -0.22456,   0.00000  )

     Band symmetry, C_1 (1)     point group:

     e(  1 -  1) =    -15.02760  eV     1   --> A              
     e(  2 -  2) =    -13.79522  eV     1   --> A              
     e(  3 -  3) =    -12.23385  eV     1   --> A              
     e(  4 -  4) =    -11.89752  eV     1   --> A              
     e(  5 -  5) =    -11.01291  eV     1   --> A              
     e(  6 -  6) =    -10.53083  eV     1   --> A              
     e(  7 -  7) =     -9.18334  eV     1   --> A              
     e(  8 -  8) =     -8.19418  eV     1   --> A              
     e(  9 -  9) =     -4.89890  eV     1   --> A              
     e( 10 - 10) =     -4.50384  eV     1   --> A              
     e( 11 - 11) =     -3.81399  eV     1   --> A              
     e( 12 - 12) =     -2.43298  eV     1   --> A              
     e( 13 - 13) =     -1.86176  eV     1   --> A              
     e( 14 - 14) =     -1.53518  eV     1   --> A              
     e( 15 - 15) =     -0.62593  eV     1   --> A              
     e( 16 - 16) =      1.55580  eV     1   --> A              

 **************************************************************************

 **************************************************************************

                    xk=(   0.48330,  -0.24059,   0.00000  )

     Band symmetry, C_1 (1)     point group:

     e(  1 -  1) =    -14.87614  eV     1   --> A              
     e(  2 -  2) =    -13.64805  eV     1   --> A              
     e(  3 -  3) =    -12.44546  eV     1   --> A              
     e(  4 -  4) =    -11.75761  eV     1   --> A              
     e(  5 -  5) =    -11.21479  eV     1   --> A              
     e(  6 -  6) =    -10.39902  eV     1   --> A              
     e(  7 -  7) =     -9.36920  eV     1   --> A              
     e(  8 -  8) =     -8.37922  eV     1   --> A              
     e(  9 -  9) =     -4.82636  eV     1   --> A              
     e( 10 - 10) =     -4.42000  eV     1   --> A              
     e( 11 - 11) =     -3.74637  eV     1   --> A              
     e( 12 - 12) =     -2.36778  eV     1   --> A              
     e( 13 - 13) =     -1.81330  eV     1   --> A              
     e( 14 - 14) =     -1.47903  eV     1   --> A              
     e( 15 - 15) =     -0.73756  eV     1   --> A              
     e( 16 - 16) =      1.51156  eV     1   --> A              

 **************************************************************************

 **************************************************************************

                    xk=(   0.48887,  -0.25663,   0.00000  )

     Band symmetry, C_1 (1)     point group:

     e(  1 -  1) =    -14.74861  eV     1   --> A              
     e(  2 -  2) =    -13.52466  eV     1   --> A              
     e(  3 -  3) =    -12.61625  eV     1   --> A              
     e(  4 -  4) =    -11.64641  eV     1   --> A              
     e(  5 -  5) =    -11.37082  eV     1   --> A              
     e(  6 -  6) =    -10.29373  eV     1   --> A              
     e(  7 -  7) =     -9.51034  eV     1   --> A              
     e(  8 -  8) =     -8.53312  eV     1   --> A              
     e(  9 -  9) =     -4.77297  eV     1   --> A              
     e( 10 - 10) =     -4.35390  eV     1   --> A              
     e( 11 - 11) =     -3.69688  eV     1   --> A              
     e( 12 - 12) =     -2.31904  eV     1   --> A              
     e( 13 - 13) =     -1.77806  eV     1   --> A              
     e( 14 - 14) =     -1.44763  eV     1   --> A              
     e( 15 - 15) =     -0.80969  eV     1   --> A              
     e( 16 - 16) =      1.46359  eV     1   --> A              

 **************************************************************************

 **************************************************************************

                    xk=(   0.49443,  -0.27266,   0.00000  )

     Band symmetry, C_1 (1)     point group:

     e(  1 -  1) =    -14.66083  eV     1   --> A              
     e(  2 -  2) =    -13.44011  eV     1   --> A              
     e(  3 -  3) =    -12.73006  eV     1   --> A              
     e(  4 -  4) =    -11.59378  eV     1   --> A              
     e(  5 -  5) =    -11.45053  eV     1   --> A              
     e(  6 -  6) =    -10.22868  eV     1   --> A              
     e(  7 -  7) =     -9.59438  eV     1   --> A              
     e(  8 -  8) =     -8.63891  eV     1   --> A              
     e(  9 -  9) =     -4.74022  eV     1   --> A              
     e( 10 - 10) =     -4.31148  eV     1   --> A              
     e( 11 - 11) =     -3.66665  eV     1   --> A              
     e( 12 - 12) =     -2.28864  eV     1   --> A              
     e( 13 - 13) =     -1.75665  eV     1   --> A              
     e( 14 - 14) =     -1.43623  eV     1   --> A              
     e( 15 - 15) =     -0.84623  eV     1   --> A              
     e( 16 - 16) =      1.42791  eV     1   --> A              

 **************************************************************************

 **************************************************************************

                    xk=(   0.50000,  -0.28869,   0.00000  )

     Band symmetry, C_1 (1)     point group:

     e(  1 -  1) =    -14.62910  eV     1   --> A              
[...]

 **************************************************************************

                    xk=(   0.23333,  -0.13472,   0.00000  )

     Band symmetry, C_1 (1)     point group:

     e(  1 -  1) =    -18.50352  eV     1   --> A              
     e(  2 -  2) =    -17.21978  eV     1   --> A              
     e(  3 -  3) =    -15.22418  eV     1   --> A              
     e(  4 -  4) =    -13.67717  eV     1   --> A              
     e(  5 -  5) =     -8.08202  eV     1   --> A              
     e(  6 -  6) =     -6.24377  eV     1   --> A              
     e(  7 -  7) =     -5.14257  eV     1   --> A              
     e(  8 -  8) =     -4.77609  eV     1   --> A              
     e(  9 -  9) =     -3.21606  eV     1   --> A              
     e( 10 - 10) =     -3.19475  eV     1   --> A              
     e( 11 - 11) =     -2.54734  eV     1   --> A              
     e( 12 - 12) =     -2.18014  eV     1   --> A              
     e( 13 - 13) =     -0.85044  eV     1   --> A              
     e( 14 - 14) =     -0.66758  eV     1   --> A              
     e( 15 - 15) =     -0.37299  eV     1   --> A              
     e( 16 - 16) =      3.02791  eV     1   --> A              

 **************************************************************************

 **************************************************************************

                    xk=(   0.21667,  -0.12510,   0.00000  )

     Band symmetry, C_1 (1)     point group:

     e(  1 -  1) =    -18.68530  eV     1   --> A              
     e(  2 -  2) =    -17.39964  eV     1   --> A              
     e(  3 -  3) =    -15.39958  eV     1   --> A              
     e(  4 -  4) =    -13.84262  eV     1   --> A              
     e(  5 -  5) =     -8.24338  eV     1   --> A              
     e(  6 -  6) =     -5.76723  eV     1   --> A              
     e(  7 -  7) =     -4.94221  eV     1   --> A              
     e(  8 -  8) =     -4.57323  eV     1   --> A              
     e(  9 -  9) =     -3.04219  eV     1   --> A              
     e( 10 - 10) =     -2.83162  eV     1   --> A              
     e( 11 - 11) =     -2.14456  eV     1   --> A              
     e( 12 - 12) =     -2.01138  eV     1   --> A              
     e( 13 - 13) =     -0.82192  eV     1   --> A              
     e( 14 - 14) =     -0.68834  eV     1   --> A              
     e( 15 - 15) =     -0.21814  eV     1   --> A              
     e( 16 - 16) =      2.90671  eV     1   --> A              

 **************************************************************************

 **************************************************************************

                    xk=(   0.20000,  -0.11548,   0.00000  )

     Band symmetry, C_1 (1)     point group:

     e(  1 -  1) =    -18.85405  eV     1   --> A              
     e(  2 -  2) =    -17.56665  eV     1   --> A              
     e(  3 -  3) =    -15.56246  eV     1   --> A              
     e(  4 -  4) =    -13.99622  eV     1   --> A              
     e(  5 -  5) =     -8.39727  eV     1   --> A              
     e(  6 -  6) =     -5.35310  eV     1   --> A              
     e(  7 -  7) =     -4.94626  eV     1   --> A              
     e(  8 -  8) =     -4.13953  eV     1   --> A              
     e(  9 -  9) =     -2.86427  eV     1   --> A              
     e( 10 - 10) =     -2.43674  eV     1   --> A              
     e( 11 - 11) =     -1.83887  eV     1   --> A              
     e( 12 - 12) =     -1.74612  eV     1   --> A              
     e( 13 - 13) =     -0.96476  eV     1   --> A              
     e( 14 - 14) =     -0.52303  eV     1   --> A              
     e( 15 - 15) =     -0.06036  eV     1   --> A              
     e( 16 - 16) =      2.78857  eV     1   --> A              

 **************************************************************************

 **************************************************************************

                    xk=(   0.18333,  -0.10585,   0.00000  )

     Band symmetry, C_1 (1)     point group:

     e(  1 -  1) =    -19.00966  eV     1   --> A              
     e(  2 -  2) =    -17.72066  eV     1   --> A              
     e(  3 -  3) =    -15.71271  eV     1   --> A              
     e(  4 -  4) =    -14.13788  eV     1   --> A              
     e(  5 -  5) =     -8.54185  eV     1   --> A              
     e(  6 -  6) =     -5.24315  eV     1   --> A              
     e(  7 -  7) =     -4.68354  eV     1   --> A              
     e(  8 -  8) =     -3.69080  eV     1   --> A              
     e(  9 -  9) =     -2.68421  eV     1   --> A              
     e( 10 - 10) =     -2.03199  eV     1   --> A              
     e( 11 - 11) =     -1.66449  eV     1   --> A              
     e( 12 - 12) =     -1.35572  eV     1   --> A              
     e( 13 - 13) =     -1.09458  eV     1   --> A              
     e( 14 - 14) =     -0.35618  eV     1   --> A              
     e( 15 - 15) =      0.09845  eV     1   --> A              
     e( 16 - 16) =      2.67600  eV     1   --> A              

 **************************************************************************

 **************************************************************************

                    xk=(   0.16667,  -0.09623,   0.00000  )

     Band symmetry, C_1 (1)     point group:

     e(  1 -  1) =    -19.15200  eV     1   --> A              
     e(  2 -  2) =    -17.86158  eV     1   --> A              
     e(  3 -  3) =    -15.85021  eV     1   --> A              
     e(  4 -  4) =    -14.26751  eV     1   --> A              
     e(  5 -  5) =     -8.67594  eV     1   --> A              
     e(  6 -  6) =     -5.31871  eV     1   --> A              
     e(  7 -  7) =     -4.24801  eV     1   --> A              
     e(  8 -  8) =     -3.25140  eV     1   --> A              
     e(  9 -  9) =     -2.50379  eV     1   --> A              
     e( 10 - 10) =     -1.63018  eV     1   --> A              
     e( 11 - 11) =     -1.49015  eV     1   --> A              
     e( 12 - 12) =     -1.20906  eV     1   --> A              
     e( 13 - 13) =     -0.97603  eV     1   --> A              
     e( 14 - 14) =     -0.18968  eV     1   --> A              
     e( 15 - 15) =      0.25660  eV     1   --> A              
     e( 16 - 16) =      2.57048  eV     1   --> A              

 **************************************************************************

 **************************************************************************

                    xk=(   0.15000,  -0.08661,   0.00000  )

     Band symmetry, C_1 (1)     point group:

     e(  1 -  1) =    -19.28099  eV     1   --> A              
     e(  2 -  2) =    -17.98931  eV     1   --> A              
     e(  3 -  3) =    -15.97486  eV     1   --> A              
     e(  4 -  4) =    -14.38506  eV     1   --> A              
     e(  5 -  5) =     -8.79878  eV     1   --> A              
     e(  6 -  6) =     -5.41485  eV     1   --> A              
     e(  7 -  7) =     -3.80126  eV     1   --> A              
     e(  8 -  8) =     -2.83142  eV     1   --> A              
     e(  9 -  9) =     -2.32541  eV     1   --> A              
     e( 10 - 10) =     -1.32798  eV     1   --> A              
     e( 11 - 11) =     -1.31809  eV     1   --> A              
     e( 12 - 12) =     -1.21498  eV     1   --> A              
     e( 13 - 13) =     -0.61217  eV     1   --> A              
     e( 14 - 14) =     -0.02587  eV     1   --> A              
     e( 15 - 15) =      0.41188  eV     1   --> A              
     e( 16 - 16) =      2.47294  eV     1   --> A              

 **************************************************************************

 **************************************************************************

                    xk=(   0.13333,  -0.07698,   0.00000  )

     Band symmetry, C_1 (1)     point group:

     e(  1 -  1) =    -19.39655  eV     1   --> A              
     e(  2 -  2) =    -18.10375  eV     1   --> A              
     e(  3 -  3) =    -16.08658  eV     1   --> A              
     e(  4 -  4) =    -14.49034  eV     1   --> A              
     e(  5 -  5) =     -8.90964  eV     1   --> A              
     e(  6 -  6) =     -5.50909  eV     1   --> A              
     e(  7 -  7) =     -3.36667  eV     1   --> A              
     e(  8 -  8) =     -2.44428  eV     1   --> A              
     e(  9 -  9) =     -2.15166  eV     1   --> A              
     e( 10 - 10) =     -1.38579  eV     1   --> A              
     e( 11 - 11) =     -1.15085  eV     1   --> A              
     e( 12 - 12) =     -0.85023  eV     1   --> A              
     e( 13 - 13) =     -0.26708  eV     1   --> A              
     e( 14 - 14) =      0.13300  eV     1   --> A              
     e( 15 - 15) =      0.56200  eV     1   --> A              
     e( 16 - 16) =      2.38385  eV     1   --> A              

 **************************************************************************

 **************************************************************************

                    xk=(   0.11667,  -0.06736,   0.00000  )

     Band symmetry, C_1 (1)     point group:

     e(  1 -  1) =    -19.49863  eV     1   --> A              
     e(  2 -  2) =    -18.20487  eV     1   --> A              
     e(  3 -  3) =    -16.18531  eV     1   --> A              
     e(  4 -  4) =    -14.58340  eV     1   --> A              
     e(  5 -  5) =     -9.00817  eV     1   --> A              
     e(  6 -  6) =     -5.59593  eV     1   --> A              
     e(  7 -  7) =     -2.95367  eV     1   --> A              
     e(  8 -  8) =     -2.12023  eV     1   --> A              
     e(  9 -  9) =     -1.98558  eV     1   --> A              
     e( 10 - 10) =     -1.40513  eV     1   --> A              
     e( 11 - 11) =     -0.99131  eV     1   --> A              
     e( 12 - 12) =     -0.49462  eV     1   --> A              
     e( 13 - 13) =      0.05418  eV     1   --> A              
     e( 14 - 14) =      0.28416  eV     1   --> A              
     e( 15 - 15) =      0.70433  eV     1   --> A              
     e( 16 - 16) =      2.30362  eV     1   --> A              

 **************************************************************************

 **************************************************************************

                    xk=(   0.10000,  -0.05774,   0.00000  )

     Band symmetry, C_1 (1)     point group:

     e(  1 -  1) =    -19.58720  eV     1   --> A              
     e(  2 -  2) =    -18.29261  eV     1   --> A              
     e(  3 -  3) =    -16.27098  eV     1   --> A              
     e(  4 -  4) =    -14.66413  eV     1   --> A              
     e(  5 -  5) =     -9.09411  eV     1   --> A              
     e(  6 -  6) =     -5.67324  eV     1   --> A              
     e(  7 -  7) =     -2.56974  eV     1   --> A              
     e(  8 -  8) =     -1.92269  eV     1   --> A              
     e(  9 -  9) =     -1.83042  eV     1   --> A              
     e( 10 - 10) =     -1.31676  eV     1   --> A              
     e( 11 - 11) =     -0.84272  eV     1   --> A              
     e( 12 - 12) =     -0.16602  eV     1   --> A              
     e( 13 - 13) =      0.34762  eV     1   --> A              
     e( 14 - 14) =      0.42455  eV     1   --> A              
     e( 15 - 15) =      0.83620  eV     1   --> A              
     e( 16 - 16) =      2.23264  eV     1   --> A              

 **************************************************************************

 **************************************************************************

                    xk=(   0.08333,  -0.04812,   0.00000  )

     Band symmetry, C_1 (1)     point group:

     e(  1 -  1) =    -19.66220  eV     1   --> A              
     e(  2 -  2) =    -18.36692  eV     1   --> A              
     e(  3 -  3) =    -16.34353  eV     1   --> A              
     e(  4 -  4) =    -14.73252  eV     1   --> A              
     e(  5 -  5) =     -9.16717  eV     1   --> A              
     e(  6 -  6) =     -5.73975  eV     1   --> A              
     e(  7 -  7) =     -2.22267  eV     1   --> A              
     e(  8 -  8) =     -1.86702  eV     1   --> A              
     e(  9 -  9) =     -1.69004  eV     1   --> A              
     e( 10 - 10) =     -1.11103  eV     1   --> A              
     e( 11 - 11) =     -0.70845  eV     1   --> A              
     e( 12 - 12) =      0.12893  eV     1   --> A              
     e( 13 - 13) =      0.55106  eV     1   --> A              
     e( 14 - 14) =      0.60824  eV     1   --> A              
     e( 15 - 15) =      0.95463  eV     1   --> A              
     e( 16 - 16) =      2.17123  eV     1   --> A              

 **************************************************************************

 **************************************************************************

                    xk=(   0.06667,  -0.03849,   0.00000  )

     Band symmetry, C_1 (1)     point group:

     e(  1 -  1) =    -19.72361  eV     1   --> A              
     e(  2 -  2) =    -18.42777  eV     1   --> A              
     e(  3 -  3) =    -16.40296  eV     1   --> A              
     e(  4 -  4) =    -14.78852  eV     1   --> A              
     e(  5 -  5) =     -9.22717  eV     1   --> A              
     e(  6 -  6) =     -5.79477  eV     1   --> A              
     e(  7 -  7) =     -1.92372  eV     1   --> A              
     e(  8 -  8) =     -1.87079  eV     1   --> A              
     e(  9 -  9) =     -1.56838  eV     1   --> A              
     e( 10 - 10) =     -0.87537  eV     1   --> A              
     e( 11 - 11) =     -0.59222  eV     1   --> A              
     e( 12 - 12) =      0.38302  eV     1   --> A              
     e( 13 - 13) =      0.66031  eV     1   --> A              
     e( 14 - 14) =      0.83082  eV     1   --> A              
     e( 15 - 15) =      1.05666  eV     1   --> A              
     e( 16 - 16) =      2.11990  eV     1   --> A              

 **************************************************************************

 **************************************************************************

                    xk=(   0.05000,  -0.02887,   0.00000  )

     Band symmetry, C_1 (1)     point group:

     e(  1 -  1) =    -19.77144  eV     1   --> A              
     e(  2 -  2) =    -18.47513  eV     1   --> A              
     e(  3 -  3) =    -16.44921  eV     1   --> A              
     e(  4 -  4) =    -14.83211  eV     1   --> A              
     e(  5 -  5) =     -9.27397  eV     1   --> A              
     e(  6 -  6) =     -5.83795  eV     1   --> A              
     e(  7 -  7) =     -1.89615  eV     1   --> A              
     e(  8 -  8) =     -1.67165  eV     1   --> A              
     e(  9 -  9) =     -1.46873  eV     1   --> A              
     e( 10 - 10) =     -0.66555  eV     1   --> A              
     e( 11 - 11) =     -0.49734  eV     1   --> A              
     e( 12 - 12) =      0.58976  eV     1   --> A              
     e( 13 - 13) =      0.74915  eV     1   --> A              
     e( 14 - 14) =      1.01046  eV     1   --> A              
     e( 15 - 15) =      1.13953  eV     1   --> A              
     e( 16 - 16) =      2.07869  eV     1   --> A              

 **************************************************************************

 **************************************************************************

                    xk=(   0.03333,  -0.01925,   0.00000  )

     Band symmetry, C_1 (1)     point group:

     e(  1 -  1) =    -19.80561  eV     1   --> A              
     e(  2 -  2) =    -18.50896  eV     1   --> A              
     e(  3 -  3) =    -16.48226  eV     1   --> A              
     e(  4 -  4) =    -14.86325  eV     1   --> A              
     e(  5 -  5) =     -9.30747  eV     1   --> A              
     e(  6 -  6) =     -5.86894  eV     1   --> A              
     e(  7 -  7) =     -1.91543  eV     1   --> A              
     e(  8 -  8) =     -1.48710  eV     1   --> A              
     e(  9 -  9) =     -1.39457  eV     1   --> A              
     e( 10 - 10) =     -0.50436  eV     1   --> A              
     e( 11 - 11) =     -0.42684  eV     1   --> A              
     e( 12 - 12) =      0.74291  eV     1   --> A              
     e( 13 - 13) =      0.81501  eV     1   --> A              
     e( 14 - 14) =      1.14265  eV     1   --> A              
     e( 15 - 15) =      1.20079  eV     1   --> A              
     e( 16 - 16) =      2.04857  eV     1   --> A              

 **************************************************************************

 **************************************************************************

                    xk=(   0.01667,  -0.00962,   0.00000  )

     Band symmetry, C_1 (1)     point group:

     e(  1 -  1) =    -19.82609  eV     1   --> A              
     e(  2 -  2) =    -18.52927  eV     1   --> A              
     e(  3 -  3) =    -16.50209  eV     1   --> A              
     e(  4 -  4) =    -14.88194  eV     1   --> A              
     e(  5 -  5) =     -9.32759  eV     1   --> A              
     e(  6 -  6) =     -5.88761  eV     1   --> A              
     e(  7 -  7) =     -1.92843  eV     1   --> A              
     e(  8 -  8) =     -1.37253  eV     1   --> A              
     e(  9 -  9) =     -1.34886  eV     1   --> A              
     e( 10 - 10) =     -0.40344  eV     1   --> A              
     e( 11 - 11) =     -0.38348  eV     1   --> A              
     e( 12 - 12) =      0.83714  eV     1   --> A              
     e( 13 - 13) =      0.85551  eV     1   --> A              
     e( 14 - 14) =      1.22361  eV     1   --> A              
     e( 15 - 15) =      1.23838  eV     1   --> A              
     e( 16 - 16) =      2.03015  eV     1   --> A              

 **************************************************************************

 **************************************************************************

                    xk=(   0.00000,   0.00000,   0.00000  )

     point group C_s (m)    
     there are  2 classes
     the character table:

       E     s    
A'     1.00  1.00
A''    1.00 -1.00

     the symmetry operations in each class and the name of the first element:

     E        1
                                                                 
     s        2
                                                                 

     Band symmetry, C_s (m)     point group:

     e(  1 -  1) =    -19.83290  eV     1   --> A'             
     e(  2 -  2) =    -18.53604  eV     1   --> A'             
     e(  3 -  3) =    -16.50870  eV     1   --> A'             
     e(  4 -  4) =    -14.88817  eV     1   --> A'             
     e(  5 -  5) =     -9.33430  eV     1   --> A'             
     e(  6 -  6) =     -5.89385  eV     1   --> A'             
     e(  7 -  7) =     -1.93295  eV     1   --> A'             
     e(  8 -  8) =     -1.33388  eV     1   --> A''            
     e(  9 -  9) =     -1.33352  eV     1   --> A'             
     e( 10 - 10) =     -0.36936  eV     1   --> A''            
     e( 11 - 11) =     -0.36903  eV     1   --> A'             
     e( 12 - 12) =      0.86894  eV     1   --> A''            
     e( 13 - 13) =      0.86924  eV     1   --> A'             
     e( 14 - 14) =      1.25079  eV     1   --> A''            
     e( 15 - 15) =      1.25106  eV     1   --> A'             
     e( 16 - 16) =      2.02394  eV     1   --> A'             

 **************************************************************************

     BANDS        :      1.97s CPU      2.10s WALL


   This run was terminated on:  14:18:53   2May2026            

=------------------------------------------------------------------------------=
   JOB DONE.
=------------------------------------------------------------------------------=
