
     Program BANDS v.7.3 starts on  2May2026 at 14:39:42 

     This program is part of the open-source Quantum ESPRESSO suite
     for quantum simulation of materials; please cite
         "P. Giannozzi et al., J. Phys.:Condens. Matter 21 395502 (2009);
         "P. Giannozzi et al., J. Phys.:Condens. Matter 29 465901 (2017);
         "P. Giannozzi et al., J. Chem. Phys. 152 154105 (2020);
          URL http://www.quantum-espresso.org", 
     in publications or presentations arising from this work. More details at
     http://www.quantum-espresso.org/quote

     Parallel version (MPI), running on     1 processors

     MPI processes distributed on     1 nodes
     6802 MiB available memory on the printing compute node when the environment starts


     Reading xml data from directory:

     ./tmp/diamond_F_bands.save/
     file C.pbe-n-kjpaw_psl.1.0.0.UPF: wavefunction(s)  2S 2P renormalized
     file F.pbe-n-kjpaw_psl.1.0.0.UPF: wavefunction(s)  2S 2P renormalized

     IMPORTANT: XC functional enforced from input :
     Exchange-correlation= PBE
                           (   1   4   3   4   0   0   0)
     Any further DFT definition will be discarded
     Please, verify this is what you really want


     G-vector sticks info
     --------------------
     sticks:   dense  smooth     PW     G-vecs:    dense   smooth      PW
     Sum         253     253     85                25509    25509    4525

     Using Slab Decomposition


     Check: negative core charge=   -0.000030

     negative rho (up, down):  1.868E-03 0.000E+00
     Reading collected, re-writing distributed wavefunctions
     high-symmetry point:  0.0000 0.0000 0.0000   x coordinate   0.0000
     high-symmetry point:  0.3330 0.1923 0.0000   x coordinate   0.3845
     high-symmetry point:  0.5000-0.2887 0.0000   x coordinate   0.8936
     high-symmetry point:  0.0000 0.0000 0.0000   x coordinate   1.4710

     Plottable bands (eV) written to file diamond_F.bands.gnu
     Bands written to file diamond_F.bands

 **************************************************************************

                    xk=(   0.00000,   0.00000,   0.00000  )

     point group C_s (m)    
     there are  2 classes
     the character table:

       E     s    
A'     1.00  1.00
A''    1.00 -1.00

     the symmetry operations in each class and the name of the first element:

     E        1
                                                                 
     s        2
                                                                 

     Band symmetry, C_s (m)     point group:

     e(  1 -  1) =    -20.83835  eV     1   --> A'             
     e(  2 -  2) =    -19.74973  eV     1   --> A'             
     e(  3 -  3) =    -18.35495  eV     1   --> A'             
     e(  4 -  4) =    -16.36727  eV     1   --> A'             
     e(  5 -  5) =    -14.78811  eV     1   --> A'             
     e(  6 -  6) =     -9.31982  eV     1   --> A'             
     e(  7 -  7) =     -5.99638  eV     1   --> A'             
     e(  8 -  8) =     -2.46324  eV     1   --> A'             
     e(  9 -  9) =     -1.37315  eV     1   --> A''            
     e( 10 - 10) =     -1.37280  eV     1   --> A'             
     e( 11 - 11) =     -0.62630  eV     1   --> A''            
     e( 12 - 12) =     -0.62598  eV     1   --> A'             
     e( 13 - 13) =      0.29455  eV     1   --> A''            
     e( 14 - 14) =      0.29482  eV     1   --> A'             
     e( 15 - 15) =      0.62761  eV     1   --> A'             
     e( 16 - 16) =      1.15452  eV     1   --> A''            
     e( 17 - 17) =      1.15479  eV     1   --> A'             
     e( 18 - 18) =      1.74627  eV     1   --> A''            
     e( 19 - 19) =      1.74648  eV     1   --> A'             
     e( 20 - 20) =      3.34352  eV     1   --> A'             
     e( 21 - 21) =      6.31996  eV     1   --> A'             
     e( 22 - 22) =      7.58270  eV     1   --> A'             
     e( 23 - 23) =      7.74914  eV     1   --> A''            
     e( 24 - 24) =      7.75018  eV     1   --> A'             

 **************************************************************************

 **************************************************************************

                    xk=(   0.01110,   0.00641,   0.00000  )

     point group C_1 (1)    
     there are  1 classes
     the character table:

       E    
A      1.00

     the symmetry operations in each class and the name of the first element:

     E        1
                                                                 

     Band symmetry, C_1 (1)     point group:

     e(  1 -  1) =    -20.83661  eV     1   --> A              
     e(  2 -  2) =    -19.74685  eV     1   --> A              
     e(  3 -  3) =    -18.35213  eV     1   --> A              
     e(  4 -  4) =    -16.36454  eV     1   --> A              
     e(  5 -  5) =    -14.78551  eV     1   --> A              
     e(  6 -  6) =     -9.31698  eV     1   --> A              
     e(  7 -  7) =     -5.99392  eV     1   --> A              
     e(  8 -  8) =     -2.46168  eV     1   --> A              
     e(  9 -  9) =     -1.39031  eV     1   --> A              
     e( 10 - 10) =     -1.37962  eV     1   --> A              
     e( 11 - 11) =     -0.64108  eV     1   --> A              
     e( 12 - 12) =     -0.63191  eV     1   --> A              
     e( 13 - 13) =      0.28019  eV     1   --> A              
     e( 14 - 14) =      0.28943  eV     1   --> A              
     e( 15 - 15) =      0.63063  eV     1   --> A              
     e( 16 - 16) =      1.14211  eV     1   --> A              
     e( 17 - 17) =      1.14922  eV     1   --> A              
     e( 18 - 18) =      1.73915  eV     1   --> A              
     e( 19 - 19) =      1.74456  eV     1   --> A              
     e( 20 - 20) =      3.34725  eV     1   --> A              
     e( 21 - 21) =      6.32205  eV     1   --> A              
     e( 22 - 22) =      7.58528  eV     1   --> A              
     e( 23 - 23) =      7.74458  eV     1   --> A              
     e( 24 - 24) =      7.76125  eV     1   --> A              

 **************************************************************************

 **************************************************************************

                    xk=(   0.02220,   0.01282,   0.00000  )

     Band symmetry, C_1 (1)     point group:

     e(  1 -  1) =    -20.83139  eV     1   --> A              
     e(  2 -  2) =    -19.73812  eV     1   --> A              
     e(  3 -  3) =    -18.34367  eV     1   --> A              
     e(  4 -  4) =    -16.35634  eV     1   --> A              
     e(  5 -  5) =    -14.77773  eV     1   --> A              
     e(  6 -  6) =     -9.30847  eV     1   --> A              
     e(  7 -  7) =     -5.98654  eV     1   --> A              
     e(  8 -  8) =     -2.45715  eV     1   --> A              
     e(  9 -  9) =     -1.44170  eV     1   --> A              
     e( 10 - 10) =     -1.39979  eV     1   --> A              
     e( 11 - 11) =     -0.68585  eV     1   --> A              
     e( 12 - 12) =     -0.65046  eV     1   --> A              
     e( 13 - 13) =      0.23763  eV     1   --> A              
     e( 14 - 14) =      0.27357  eV     1   --> A              
     e( 15 - 15) =      0.63893  eV     1   --> A              
     e( 16 - 16) =      1.10492  eV     1   --> A              
     e( 17 - 17) =      1.13258  eV     1   --> A              
     e( 18 - 18) =      1.71805  eV     1   --> A              
     e( 19 - 19) =      1.73919  eV     1   --> A              
     e( 20 - 20) =      3.35856  eV     1   --> A              
     e( 21 - 21) =      6.32825  eV     1   --> A              
     e( 22 - 22) =      7.58968  eV     1   --> A              
     e( 23 - 23) =      7.73730  eV     1   --> A              
     e( 24 - 24) =      7.79755  eV     1   --> A              

 **************************************************************************

 **************************************************************************

                    xk=(   0.03330,   0.01923,   0.00000  )

     Band symmetry, C_1 (1)     point group:

     e(  1 -  1) =    -20.82272  eV     1   --> A              
     e(  2 -  2) =    -19.72361  eV     1   --> A              
     e(  3 -  3) =    -18.32957  eV     1   --> A              
     e(  4 -  4) =    -16.34269  eV     1   --> A              
     e(  5 -  5) =    -14.76475  eV     1   --> A              
     e(  6 -  6) =     -9.29429  eV     1   --> A              
     e(  7 -  7) =     -5.97425  eV     1   --> A              
     e(  8 -  8) =     -2.44988  eV     1   --> A              
     e(  9 -  9) =     -1.52618  eV     1   --> A              
     e( 10 - 10) =     -1.43345  eV     1   --> A              
     e( 11 - 11) =     -0.75936  eV     1   --> A              
     e( 12 - 12) =     -0.68109  eV     1   --> A              
     e( 13 - 13) =      0.16855  eV     1   --> A              
     e( 14 - 14) =      0.24725  eV     1   --> A              
     e( 15 - 15) =      0.65106  eV     1   --> A              
     e( 16 - 16) =      1.04392  eV     1   --> A              
     e( 17 - 17) =      1.10507  eV     1   --> A              
     e( 18 - 18) =      1.68345  eV     1   --> A              
     e( 19 - 19) =      1.73016  eV     1   --> A              
     e( 20 - 20) =      3.37684  eV     1   --> A              
     e( 21 - 21) =      6.33827  eV     1   --> A              
     e( 22 - 22) =      7.58734  eV     1   --> A              
     e( 23 - 23) =      7.73246  eV     1   --> A              
     e( 24 - 24) =      7.79127  eV     1   --> A              

 **************************************************************************

 **************************************************************************

                    xk=(   0.04440,   0.02564,   0.00000  )

     Band symmetry, C_1 (1)     point group:

     e(  1 -  1) =    -20.81061  eV     1   --> A              
     e(  2 -  2) =    -19.70327  eV     1   --> A              
     e(  3 -  3) =    -18.30982  eV     1   --> A              
     e(  4 -  4) =    -16.32357  eV     1   --> A              
     e(  5 -  5) =    -14.74659  eV     1   --> A              
     e(  6 -  6) =     -9.27447  eV     1   --> A              
     e(  7 -  7) =     -5.95714  eV     1   --> A              
     e(  8 -  8) =     -2.44046  eV     1   --> A              
     e(  9 -  9) =     -1.64141  eV     1   --> A              
     e( 10 - 10) =     -1.47955  eV     1   --> A              
     e( 11 - 11) =     -0.85972  eV     1   --> A              
     e( 12 - 12) =     -0.72325  eV     1   --> A              
     e( 13 - 13) =      0.07474  eV     1   --> A              
     e( 14 - 14) =      0.21090  eV     1   --> A              
     e( 15 - 15) =      0.66517  eV     1   --> A              
     e( 16 - 16) =      0.96088  eV     1   --> A              
     e( 17 - 17) =      1.06714  eV     1   --> A              
     e( 18 - 18) =      1.63615  eV     1   --> A              
     e( 19 - 19) =      1.71806  eV     1   --> A              
     e( 20 - 20) =      3.40149  eV     1   --> A              
     e( 21 - 21) =      6.35178  eV     1   --> A              
     e( 22 - 22) =      7.56921  eV     1   --> A              
     e( 23 - 23) =      7.69813  eV     1   --> A              
     e( 24 - 24) =      7.76397  eV     1   --> A              

 **************************************************************************

 **************************************************************************

                    xk=(   0.05550,   0.03204,   0.00000  )

     Band symmetry, C_1 (1)     point group:

     e(  1 -  1) =    -20.79514  eV     1   --> A              
     e(  2 -  2) =    -19.67709  eV     1   --> A              
     e(  3 -  3) =    -18.28443  eV     1   --> A              
     e(  4 -  4) =    -16.29899  eV     1   --> A              
     e(  5 -  5) =    -14.72324  eV     1   --> A              
     e(  6 -  6) =     -9.24900  eV     1   --> A              
     e(  7 -  7) =     -5.93516  eV     1   --> A              
     e(  8 -  8) =     -2.42972  eV     1   --> A              
     e(  9 -  9) =     -1.78509  eV     1   --> A              
     e( 10 - 10) =     -1.53756  eV     1   --> A              
     e( 11 - 11) =     -0.98472  eV     1   --> A              
     e( 12 - 12) =     -0.77648  eV     1   --> A              
     e( 13 - 13) =     -0.04209  eV     1   --> A              
     e( 14 - 14) =      0.16492  eV     1   --> A              
     e( 15 - 15) =      0.67696  eV     1   --> A              
     e( 16 - 16) =      0.86069  eV     1   --> A              
     e( 17 - 17) =      1.01925  eV     1   --> A              
     e( 18 - 18) =      1.57721  eV     1   --> A              
     e( 19 - 19) =      1.70302  eV     1   --> A              
     e( 20 - 20) =      3.43199  eV     1   --> A              
     e( 21 - 21) =      6.36839  eV     1   --> A              
     e( 22 - 22) =      7.53068  eV     1   --> A              
     e( 23 - 23) =      7.61627  eV     1   --> A              
     e( 24 - 24) =      7.76906  eV     1   --> A              

 **************************************************************************

 **************************************************************************

                    xk=(   0.06660,   0.03845,   0.00000  )

     Band symmetry, C_1 (1)     point group:

     e(  1 -  1) =    -20.77634  eV     1   --> A              
     e(  2 -  2) =    -19.64508  eV     1   --> A              
     e(  3 -  3) =    -18.25339  eV     1   --> A              
     e(  4 -  4) =    -16.26896  eV     1   --> A              
     e(  5 -  5) =    -14.69470  eV     1   --> A              
     e(  6 -  6) =     -9.21793  eV     1   --> A              
     e(  7 -  7) =     -5.90844  eV     1   --> A              
     e(  8 -  8) =     -2.41980  eV     1   --> A              
     e(  9 -  9) =     -1.95368  eV     1   --> A              
     e( 10 - 10) =     -1.60629  eV     1   --> A              
     e( 11 - 11) =     -1.13112  eV     1   --> A              
     e( 12 - 12) =     -0.83968  eV     1   --> A              
     e( 13 - 13) =     -0.18023  eV     1   --> A              
     e( 14 - 14) =      0.10990  eV     1   --> A              
     e( 15 - 15) =      0.65901  eV     1   --> A              
     e( 16 - 16) =      0.77174  eV     1   --> A              
     e( 17 - 17) =      0.96217  eV     1   --> A              
     e( 18 - 18) =      1.50815  eV     1   --> A              
     e( 19 - 19) =      1.68572  eV     1   --> A              
     e( 20 - 20) =      3.46739  eV     1   --> A              
     e( 21 - 21) =      6.38735  eV     1   --> A              
     e( 22 - 22) =      7.45936  eV     1   --> A              
     e( 23 - 23) =      7.53411  eV     1   --> A              
     e( 24 - 24) =      7.76777  eV     1   --> A              

 **************************************************************************

 **************************************************************************

                    xk=(   0.07770,   0.04486,   0.00000  )

     Band symmetry, C_1 (1)     point group:

     e(  1 -  1) =    -20.75431  eV     1   --> A              
     e(  2 -  2) =    -19.60727  eV     1   --> A              
     e(  3 -  3) =    -18.21672  eV     1   --> A              
     e(  4 -  4) =    -16.23348  eV     1   --> A              
     e(  5 -  5) =    -14.66097  eV     1   --> A              
     e(  6 -  6) =     -9.18129  eV     1   --> A              
     e(  7 -  7) =     -5.87713  eV     1   --> A              
     e(  8 -  8) =     -2.41678  eV     1   --> A              
     e(  9 -  9) =     -2.14132  eV     1   --> A              
     e( 10 - 10) =     -1.68477  eV     1   --> A              
     e( 11 - 11) =     -1.29475  eV     1   --> A              
     e( 12 - 12) =     -0.91217  eV     1   --> A              
     e( 13 - 13) =     -0.33801  eV     1   --> A              
     e( 14 - 14) =      0.04642  eV     1   --> A              
     e( 15 - 15) =      0.54742  eV     1   --> A              
     e( 16 - 16) =      0.75847  eV     1   --> A              
     e( 17 - 17) =      0.89648  eV     1   --> A              
     e( 18 - 18) =      1.43001  eV     1   --> A              
     e( 19 - 19) =      1.66617  eV     1   --> A              
     e( 20 - 20) =      3.50635  eV     1   --> A              
     e( 21 - 21) =      6.40757  eV     1   --> A              
     e( 22 - 22) =      7.34668  eV     1   --> A              
     e( 23 - 23) =      7.46798  eV     1   --> A              
     e( 24 - 24) =      7.75117  eV     1   --> A              

 **************************************************************************

 **************************************************************************

                    xk=(   0.08880,   0.05127,   0.00000  )

     Band symmetry, C_1 (1)     point group:

     e(  1 -  1) =    -20.72912  eV     1   --> A              
     e(  2 -  2) =    -19.56360  eV     1   --> A              
     e(  3 -  3) =    -18.17440  eV     1   --> A              
     e(  4 -  4) =    -16.19256  eV     1   --> A              
     e(  5 -  5) =    -14.62207  eV     1   --> A              
     e(  6 -  6) =     -9.13911  eV     1   --> A              
     e(  7 -  7) =     -5.84121  eV     1   --> A              
     e(  8 -  8) =     -2.45420  eV     1   --> A              
     e(  9 -  9) =     -2.31526  eV     1   --> A              
     e( 10 - 10) =     -1.77203  eV     1   --> A              
     e( 11 - 11) =     -1.46916  eV     1   --> A              
     e( 12 - 12) =     -0.99309  eV     1   --> A              
     e( 13 - 13) =     -0.51354  eV     1   --> A              
     e( 14 - 14) =     -0.02484  eV     1   --> A              
     e( 15 - 15) =      0.38906  eV     1   --> A              
     e( 16 - 16) =      0.77501  eV     1   --> A              
     e( 17 - 17) =      0.82301  eV     1   --> A              
     e( 18 - 18) =      1.34552  eV     1   --> A              
     e( 19 - 19) =      1.64482  eV     1   --> A              
     e( 20 - 20) =      3.54896  eV     1   --> A              
     e( 21 - 21) =      6.42839  eV     1   --> A              
     e( 22 - 22) =      7.21034  eV     1   --> A              
     e( 23 - 23) =      7.40380  eV     1   --> A              
     e( 24 - 24) =      7.72003  eV     1   --> A              

 **************************************************************************

 **************************************************************************

                    xk=(   0.09990,   0.05768,   0.00000  )

     Band symmetry, C_1 (1)     point group:

     e(  1 -  1) =    -20.70087  eV     1   --> A              
     e(  2 -  2) =    -19.51411  eV     1   --> A              
     e(  3 -  3) =    -18.12645  eV     1   --> A              
     e(  4 -  4) =    -16.14621  eV     1   --> A              
     e(  5 -  5) =    -14.57800  eV     1   --> A              
     e(  6 -  6) =     -9.09145  eV     1   --> A              
     e(  7 -  7) =     -5.80090  eV     1   --> A              
     e(  8 -  8) =     -2.63260  eV     1   --> A              
     e(  9 -  9) =     -2.38243  eV     1   --> A              
     e( 10 - 10) =     -1.86702  eV     1   --> A              
     e( 11 - 11) =     -1.64320  eV     1   --> A              
     e( 12 - 12) =     -1.08136  eV     1   --> A              
     e( 13 - 13) =     -0.70484  eV     1   --> A              
     e( 14 - 14) =     -0.10303  eV     1   --> A              
     e( 15 - 15) =      0.20966  eV     1   --> A              
     e( 16 - 16) =      0.74263  eV     1   --> A              
     e( 17 - 17) =      0.79511  eV     1   --> A              
     e( 18 - 18) =      1.25719  eV     1   --> A              
     e( 19 - 19) =      1.62189  eV     1   --> A              
     e( 20 - 20) =      3.59408  eV     1   --> A              
     e( 21 - 21) =      6.44827  eV     1   --> A              
     e( 22 - 22) =      7.05887  eV     1   --> A              
     e( 23 - 23) =      7.33518  eV     1   --> A              
     e( 24 - 24) =      7.67609  eV     1   --> A              

 **************************************************************************

 **************************************************************************

                    xk=(   0.11100,   0.06409,   0.00000  )

     Band symmetry, C_1 (1)     point group:

     e(  1 -  1) =    -20.66969  eV     1   --> A              
     e(  2 -  2) =    -19.45877  eV     1   --> A              
     e(  3 -  3) =    -18.07285  eV     1   --> A              
     e(  4 -  4) =    -16.09444  eV     1   --> A              
     e(  5 -  5) =    -14.52875  eV     1   --> A              
     e(  6 -  6) =     -9.03835  eV     1   --> A              
     e(  7 -  7) =     -5.75639  eV     1   --> A              
     e(  8 -  8) =     -2.87461  eV     1   --> A              
     e(  9 -  9) =     -2.43610  eV     1   --> A              
     e( 10 - 10) =     -1.96867  eV     1   --> A              
     e( 11 - 11) =     -1.79666  eV     1   --> A              
     e( 12 - 12) =     -1.17602  eV     1   --> A              
     e( 13 - 13) =     -0.90946  eV     1   --> A              
     e( 14 - 14) =     -0.18739  eV     1   --> A              
     e( 15 - 15) =      0.01451  eV     1   --> A              
     e( 16 - 16) =      0.65620  eV     1   --> A              
     e( 17 - 17) =      0.81085  eV     1   --> A              
     e( 18 - 18) =      1.17101  eV     1   --> A              
     e( 19 - 19) =      1.59770  eV     1   --> A              
     e( 20 - 20) =      3.64139  eV     1   --> A              
     e( 21 - 21) =      6.46548  eV     1   --> A              
     e( 22 - 22) =      6.89549  eV     1   --> A              
     e( 23 - 23) =      7.26106  eV     1   --> A              
     e( 24 - 24) =      7.62176  eV     1   --> A              

 **************************************************************************

 **************************************************************************

                    xk=(   0.12210,   0.07050,   0.00000  )

     Band symmetry, C_1 (1)     point group:

     e(  1 -  1) =    -20.63568  eV     1   --> A              
     e(  2 -  2) =    -19.39756  eV     1   --> A              
     e(  3 -  3) =    -18.01361  eV     1   --> A              
     e(  4 -  4) =    -16.03724  eV     1   --> A              
     e(  5 -  5) =    -14.47436  eV     1   --> A              
     e(  6 -  6) =     -8.97996  eV     1   --> A              
     e(  7 -  7) =     -5.70799  eV     1   --> A              
     e(  8 -  8) =     -3.13717  eV     1   --> A              
     e(  9 -  9) =     -2.54308  eV     1   --> A              
     e( 10 - 10) =     -2.07560  eV     1   --> A              
     e( 11 - 11) =     -1.90290  eV     1   --> A              
     e( 12 - 12) =     -1.27616  eV     1   --> A              
     e( 13 - 13) =     -1.12481  eV     1   --> A              
     e( 14 - 14) =     -0.27713  eV     1   --> A              
     e( 15 - 15) =     -0.19409  eV     1   --> A              
     e( 16 - 16) =      0.56461  eV     1   --> A              
     e( 17 - 17) =      0.81022  eV     1   --> A              
     e( 18 - 18) =      1.09914  eV     1   --> A              
     e( 19 - 19) =      1.57261  eV     1   --> A              
     e( 20 - 20) =      3.69045  eV     1   --> A              
     e( 21 - 21) =      6.47590  eV     1   --> A              
     e( 22 - 22) =      6.72403  eV     1   --> A              
     e( 23 - 23) =      7.18142  eV     1   --> A              
     e( 24 - 24) =      7.55979  eV     1   --> A              

 **************************************************************************

 **************************************************************************

                    xk=(   0.13320,   0.07691,   0.00000  )

     Band symmetry, C_1 (1)     point group:

     e(  1 -  1) =    -20.59900  eV     1   --> A              
     e(  2 -  2) =    -19.33049  eV     1   --> A              
     e(  3 -  3) =    -17.94874  eV     1   --> A              
     e(  4 -  4) =    -15.97462  eV     1   --> A              
     e(  5 -  5) =    -14.41476  eV     1   --> A              
     e(  6 -  6) =     -8.91622  eV     1   --> A              
     e(  7 -  7) =     -5.65598  eV     1   --> A              
     e(  8 -  8) =     -3.41351  eV     1   --> A              
     e(  9 -  9) =     -2.71622  eV     1   --> A              
     e( 10 - 10) =     -2.18694  eV     1   --> A              
     e( 11 - 11) =     -1.95493  eV     1   --> A              
     e( 12 - 12) =     -1.38067  eV     1   --> A              
     e( 13 - 13) =     -1.34628  eV     1   --> A              
     e( 14 - 14) =     -0.41427  eV     1   --> A              
     e( 15 - 15) =     -0.37131  eV     1   --> A              
     e( 16 - 16) =      0.46876  eV     1   --> A              
     e( 17 - 17) =      0.77430  eV     1   --> A              
     e( 18 - 18) =      1.06112  eV     1   --> A              
     e( 19 - 19) =      1.54669  eV     1   --> A              
     e( 20 - 20) =      3.74090  eV     1   --> A              
     e( 21 - 21) =      6.45444  eV     1   --> A              
     e( 22 - 22) =      6.56916  eV     1   --> A              
     e( 23 - 23) =      7.09613  eV     1   --> A              
     e( 24 - 24) =      7.49320  eV     1   --> A              

 **************************************************************************

 **************************************************************************

                    xk=(   0.14430,   0.08332,   0.00000  )

     Band symmetry, C_1 (1)     point group:

     e(  1 -  1) =    -20.55978  eV     1   --> A              
     e(  2 -  2) =    -19.25756  eV     1   --> A              
     e(  3 -  3) =    -17.87824  eV     1   --> A              
     e(  4 -  4) =    -15.90663  eV     1   --> A              
     e(  5 -  5) =    -14.35005  eV     1   --> A              
     e(  6 -  6) =     -8.84732  eV     1   --> A              
     e(  7 -  7) =     -5.60096  eV     1   --> A              
     e(  8 -  8) =     -3.70058  eV     1   --> A              
     e(  9 -  9) =     -2.93804  eV     1   --> A              
     e( 10 - 10) =     -2.30168  eV     1   --> A              
     e( 11 - 11) =     -1.97970  eV     1   --> A              
     e( 12 - 12) =     -1.56243  eV     1   --> A              
     e( 13 - 13) =     -1.48871  eV     1   --> A              
     e( 14 - 14) =     -0.64480  eV     1   --> A              
     e( 15 - 15) =     -0.46925  eV     1   --> A              
     e( 16 - 16) =      0.36938  eV     1   --> A              
     e( 17 - 17) =      0.69805  eV     1   --> A              
     e( 18 - 18) =      1.06241  eV     1   --> A              
     e( 19 - 19) =      1.52013  eV     1   --> A              
     e( 20 - 20) =      3.79232  eV     1   --> A              
     e( 21 - 21) =      6.30809  eV     1   --> A              
     e( 22 - 22) =      6.52206  eV     1   --> A              
     e( 23 - 23) =      7.00487  eV     1   --> A              
     e( 24 - 24) =      7.42536  eV     1   --> A              

 **************************************************************************

 **************************************************************************

                    xk=(   0.15540,   0.08972,   0.00000  )

     Band symmetry, C_1 (1)     point group:

     e(  1 -  1) =    -20.51818  eV     1   --> A              
     e(  2 -  2) =    -19.17876  eV     1   --> A              
     e(  3 -  3) =    -17.80212  eV     1   --> A              
     e(  4 -  4) =    -15.83325  eV     1   --> A              
     e(  5 -  5) =    -14.28013  eV     1   --> A              
     e(  6 -  6) =     -8.77329  eV     1   --> A              
     e(  7 -  7) =     -5.54375  eV     1   --> A              
     e(  8 -  8) =     -3.99602  eV     1   --> A              
     e(  9 -  9) =     -3.18918  eV     1   --> A              
     e( 10 - 10) =     -2.41891  eV     1   --> A              
     e( 11 - 11) =     -2.03693  eV     1   --> A              
     e( 12 - 12) =     -1.73020  eV     1   --> A              
     e( 13 - 13) =     -1.59949  eV     1   --> A              
     e( 14 - 14) =     -0.88387  eV     1   --> A              
     e( 15 - 15) =     -0.57017  eV     1   --> A              
     e( 16 - 16) =      0.26729  eV     1   --> A              
     e( 17 - 17) =      0.59773  eV     1   --> A              
     e( 18 - 18) =      1.08801  eV     1   --> A              
     e( 19 - 19) =      1.49297  eV     1   --> A              
     e( 20 - 20) =      3.84445  eV     1   --> A              
     e( 21 - 21) =      6.10879  eV     1   --> A              
     e( 22 - 22) =      6.51001  eV     1   --> A              
     e( 23 - 23) =      6.90713  eV     1   --> A              
     e( 24 - 24) =      7.35984  eV     1   --> A              

 **************************************************************************

 **************************************************************************

                    xk=(   0.16650,   0.09613,   0.00000  )

     Band symmetry, C_1 (1)     point group:

     e(  1 -  1) =    -20.47439  eV     1   --> A              
     e(  2 -  2) =    -19.09409  eV     1   --> A              
     e(  3 -  3) =    -17.72036  eV     1   --> A              
     e(  4 -  4) =    -15.75449  eV     1   --> A              
     e(  5 -  5) =    -14.20512  eV     1   --> A              
     e(  6 -  6) =     -8.69439  eV     1   --> A              
     e(  7 -  7) =     -5.48584  eV     1   --> A              
     e(  8 -  8) =     -4.29760  eV     1   --> A              
     e(  9 -  9) =     -3.45789  eV     1   --> A              
     e( 10 - 10) =     -2.53784  eV     1   --> A              
     e( 11 - 11) =     -2.20332  eV     1   --> A              
     e( 12 - 12) =     -1.78170  eV     1   --> A              
     e( 13 - 13) =     -1.71204  eV     1   --> A              
     e( 14 - 14) =     -1.13021  eV     1   --> A              
     e( 15 - 15) =     -0.67315  eV     1   --> A              
     e( 16 - 16) =      0.16327  eV     1   --> A              
     e( 17 - 17) =      0.48611  eV     1   --> A              
     e( 18 - 18) =      1.12578  eV     1   --> A              
     e( 19 - 19) =      1.46575  eV     1   --> A              
     e( 20 - 20) =      3.89698  eV     1   --> A              
     e( 21 - 21) =      5.89599  eV     1   --> A              
     e( 22 - 22) =      6.49204  eV     1   --> A              
     e( 23 - 23) =      6.80239  eV     1   --> A              
     e( 24 - 24) =      7.30021  eV     1   --> A              

 **************************************************************************

 **************************************************************************

                    xk=(   0.17760,   0.10254,   0.00000  )

     Band symmetry, C_1 (1)     point group:

     e(  1 -  1) =    -20.42858  eV     1   --> A              
     e(  2 -  2) =    -19.00355  eV     1   --> A              
     e(  3 -  3) =    -17.63298  eV     1   --> A              
     e(  4 -  4) =    -15.67039  eV     1   --> A              
     e(  5 -  5) =    -14.12498  eV     1   --> A              
     e(  6 -  6) =     -8.61074  eV     1   --> A              
     e(  7 -  7) =     -5.43054  eV     1   --> A              
     e(  8 -  8) =     -4.60166  eV     1   --> A              
     e(  9 -  9) =     -3.73779  eV     1   --> A              
     e( 10 - 10) =     -2.65768  eV     1   --> A              
     e( 11 - 11) =     -2.43658  eV     1   --> A              
     e( 12 - 12) =     -1.82579  eV     1   --> A              
     e( 13 - 13) =     -1.76302  eV     1   --> A              
     e( 14 - 14) =     -1.38232  eV     1   --> A              
     e( 15 - 15) =     -0.77775  eV     1   --> A              
     e( 16 - 16) =      0.05792  eV     1   --> A              
     e( 17 - 17) =      0.36926  eV     1   --> A              
     e( 18 - 18) =      1.17074  eV     1   --> A              
     e( 19 - 19) =      1.43807  eV     1   --> A              
     e( 20 - 20) =      3.94954  eV     1   --> A              
     e( 21 - 21) =      5.67455  eV     1   --> A              
     e( 22 - 22) =      6.46272  eV     1   --> A              
     e( 23 - 23) =      6.69015  eV     1   --> A              
     e( 24 - 24) =      7.24913  eV     1   --> A              

 **************************************************************************

 **************************************************************************

                    xk=(   0.18870,   0.10895,   0.00000  )

     Band symmetry, C_1 (1)     point group:

     e(  1 -  1) =    -20.38094  eV     1   --> A              
     e(  2 -  2) =    -18.90716  eV     1   --> A              
     e(  3 -  3) =    -17.54000  eV     1   --> A              
     e(  4 -  4) =    -15.58097  eV     1   --> A              
     e(  5 -  5) =    -14.03974  eV     1   --> A              
     e(  6 -  6) =     -8.52257  eV     1   --> A              
     e(  7 -  7) =     -5.38845  eV     1   --> A              
     e(  8 -  8) =     -4.89844  eV     1   --> A              
     e(  9 -  9) =     -4.02448  eV     1   --> A              
     e( 10 - 10) =     -2.77773  eV     1   --> A              
     e( 11 - 11) =     -2.69059  eV     1   --> A              
     e( 12 - 12) =     -1.94000  eV     1   --> A              
     e( 13 - 13) =     -1.72570  eV     1   --> A              
     e( 14 - 14) =     -1.63522  eV     1   --> A              
     e( 15 - 15) =     -0.88328  eV     1   --> A              
     e( 16 - 16) =     -0.04812  eV     1   --> A              
     e( 17 - 17) =      0.24984  eV     1   --> A              
     e( 18 - 18) =      1.22019  eV     1   --> A              
     e( 19 - 19) =      1.41032  eV     1   --> A              
     e( 20 - 20) =      4.00140  eV     1   --> A              
     e( 21 - 21) =      5.44628  eV     1   --> A              
     e( 22 - 22) =      6.42014  eV     1   --> A              
     e( 23 - 23) =      6.57057  eV     1   --> A              
     e( 24 - 24) =      7.20766  eV     1   --> A              

 **************************************************************************

 **************************************************************************

                    xk=(   0.19980,   0.11536,   0.00000  )

     Band symmetry, C_1 (1)     point group:

     e(  1 -  1) =    -20.33167  eV     1   --> A              
     e(  2 -  2) =    -18.80491  eV     1   --> A              
     e(  3 -  3) =    -17.44144  eV     1   --> A              
     e(  4 -  4) =    -15.48623  eV     1   --> A              
     e(  5 -  5) =    -13.94939  eV     1   --> A              
     e(  6 -  6) =     -8.43013  eV     1   --> A              
     e(  7 -  7) =     -5.41736  eV     1   --> A              
     e(  8 -  8) =     -5.13267  eV     1   --> A              
     e(  9 -  9) =     -4.31322  eV     1   --> A              
     e( 10 - 10) =     -2.95128  eV     1   --> A              
     e( 11 - 11) =     -2.89730  eV     1   --> A              
     e( 12 - 12) =     -2.05410  eV     1   --> A              
     e( 13 - 13) =     -1.90541  eV     1   --> A              
     e( 14 - 14) =     -1.66474  eV     1   --> A              
     e( 15 - 15) =     -0.98910  eV     1   --> A              
     e( 16 - 16) =     -0.15413  eV     1   --> A              
     e( 17 - 17) =      0.13038  eV     1   --> A              
     e( 18 - 18) =      1.27358  eV     1   --> A              
     e( 19 - 19) =      1.38254  eV     1   --> A              
     e( 20 - 20) =      4.05189  eV     1   --> A              
     e( 21 - 21) =      5.21338  eV     1   --> A              
     e( 22 - 22) =      6.36224  eV     1   --> A              
     e( 23 - 23) =      6.44679  eV     1   --> A              
     e( 24 - 24) =      7.17543  eV     1   --> A              

 **************************************************************************

 **************************************************************************

                    xk=(   0.21090,   0.12177,   0.00000  )

     Band symmetry, C_1 (1)     point group:

     e(  1 -  1) =    -20.28100  eV     1   --> A              
     e(  2 -  2) =    -18.69686  eV     1   --> A              
     e(  3 -  3) =    -17.33730  eV     1   --> A              
     e(  4 -  4) =    -15.38620  eV     1   --> A              
     e(  5 -  5) =    -13.85396  eV     1   --> A              
     e(  6 -  6) =     -8.33377  eV     1   --> A              
     e(  7 -  7) =     -5.63923  eV     1   --> A              
     e(  8 -  8) =     -5.19096  eV     1   --> A              
     e(  9 -  9) =     -4.59527  eV     1   --> A              
     e( 10 - 10) =     -3.21263  eV     1   --> A              
     e( 11 - 11) =     -3.01601  eV     1   --> A              
     e( 12 - 12) =     -2.16822  eV     1   --> A              
     e( 13 - 13) =     -2.16756  eV     1   --> A              
     e( 14 - 14) =     -1.60867  eV     1   --> A              
     e( 15 - 15) =     -1.09451  eV     1   --> A              
     e( 16 - 16) =     -0.25973  eV     1   --> A              
     e( 17 - 17) =      0.01218  eV     1   --> A              
     e( 18 - 18) =      1.32962  eV     1   --> A              
     e( 19 - 19) =      1.35455  eV     1   --> A              
     e( 20 - 20) =      4.09839  eV     1   --> A              
     e( 21 - 21) =      4.97853  eV     1   --> A              
     e( 22 - 22) =      6.27335  eV     1   --> A              
     e( 23 - 23) =      6.33630  eV     1   --> A              
     e( 24 - 24) =      7.15033  eV     1   --> A              

 **************************************************************************

 **************************************************************************

                    xk=(   0.22200,   0.12818,   0.00000  )

     Band symmetry, C_1 (1)     point group:

     e(  1 -  1) =    -20.22914  eV     1   --> A              
     e(  2 -  2) =    -18.58299  eV     1   --> A              
     e(  3 -  3) =    -17.22758  eV     1   --> A              
     e(  4 -  4) =    -15.28091  eV     1   --> A              
     e(  5 -  5) =    -13.75345  eV     1   --> A              
     e(  6 -  6) =     -8.23394  eV     1   --> A              
     e(  7 -  7) =     -5.94280  eV     1   --> A              
     e(  8 -  8) =     -5.21738  eV     1   --> A              
     e(  9 -  9) =     -4.83964  eV     1   --> A              
     e( 10 - 10) =     -3.46898  eV     1   --> A              
     e( 11 - 11) =     -3.13313  eV     1   --> A              
     e( 12 - 12) =     -2.43320  eV     1   --> A              
     e( 13 - 13) =     -2.27964  eV     1   --> A              
     e( 14 - 14) =     -1.54902  eV     1   --> A              
     e( 15 - 15) =     -1.19907  eV     1   --> A              
     e( 16 - 16) =     -0.36433  eV     1   --> A              
     e( 17 - 17) =     -0.10284  eV     1   --> A              
     e( 18 - 18) =      1.32675  eV     1   --> A              
     e( 19 - 19) =      1.38853  eV     1   --> A              
     e( 20 - 20) =      4.13550  eV     1   --> A              
     e( 21 - 21) =      4.74821  eV     1   --> A              
     e( 22 - 22) =      6.14147  eV     1   --> A              
     e( 23 - 23) =      6.25409  eV     1   --> A              
     e( 24 - 24) =      7.13018  eV     1   --> A              

 **************************************************************************

 **************************************************************************

                    xk=(   0.23310,   0.13459,   0.00000  )

     Band symmetry, C_1 (1)     point group:

     e(  1 -  1) =    -20.17632  eV     1   --> A              
     e(  2 -  2) =    -18.46335  eV     1   --> A              
     e(  3 -  3) =    -17.11235  eV     1   --> A              
     e(  4 -  4) =    -15.17039  eV     1   --> A              
     e(  5 -  5) =    -13.64791  eV     1   --> A              
     e(  6 -  6) =     -8.13129  eV     1   --> A              
     e(  7 -  7) =     -6.26272  eV     1   --> A              
     e(  8 -  8) =     -5.36618  eV     1   --> A              
     e(  9 -  9) =     -4.96403  eV     1   --> A              
     e( 10 - 10) =     -3.71265  eV     1   --> A              
     e( 11 - 11) =     -3.24828  eV     1   --> A              
     e( 12 - 12) =     -2.69806  eV     1   --> A              
     e( 13 - 13) =     -2.39000  eV     1   --> A              
     e( 14 - 14) =     -1.48896  eV     1   --> A              
     e( 15 - 15) =     -1.30231  eV     1   --> A              
     e( 16 - 16) =     -0.46737  eV     1   --> A              
     e( 17 - 17) =     -0.21318  eV     1   --> A              
     e( 18 - 18) =      1.29934  eV     1   --> A              
     e( 19 - 19) =      1.44947  eV     1   --> A              
     e( 20 - 20) =      4.14204  eV     1   --> A              
     e( 21 - 21) =      4.54381  eV     1   --> A              
     e( 22 - 22) =      5.99260  eV     1   --> A              
     e( 23 - 23) =      6.17661  eV     1   --> A              
     e( 24 - 24) =      7.11244  eV     1   --> A              

 **************************************************************************

 **************************************************************************

                    xk=(   0.24420,   0.14100,   0.00000  )

     Band symmetry, C_1 (1)     point group:

     e(  1 -  1) =    -20.12279  eV     1   --> A              
     e(  2 -  2) =    -18.33795  eV     1   --> A              
     e(  3 -  3) =    -16.99159  eV     1   --> A              
     e(  4 -  4) =    -15.05468  eV     1   --> A              
     e(  5 -  5) =    -13.53738  eV     1   --> A              
     e(  6 -  6) =     -8.02676  eV     1   --> A              
     e(  7 -  7) =     -6.58721  eV     1   --> A              
     e(  8 -  8) =     -5.62567  eV     1   --> A              
     e(  9 -  9) =     -5.00185  eV     1   --> A              
     e( 10 - 10) =     -3.92994  eV     1   --> A              
     e( 11 - 11) =     -3.36103  eV     1   --> A              
     e( 12 - 12) =     -2.96066  eV     1   --> A              
     e( 13 - 13) =     -2.49824  eV     1   --> A              
     e( 14 - 14) =     -1.43104  eV     1   --> A              
     e( 15 - 15) =     -1.40386  eV     1   --> A              
     e( 16 - 16) =     -0.56872  eV     1   --> A              
     e( 17 - 17) =     -0.31624  eV     1   --> A              
     e( 18 - 18) =      1.27191  eV     1   --> A              
     e( 19 - 19) =      1.51243  eV     1   --> A              
     e( 20 - 20) =      4.05518  eV     1   --> A              
     e( 21 - 21) =      4.42898  eV     1   --> A              
     e( 22 - 22) =      5.83559  eV     1   --> A              
     e( 23 - 23) =      6.09776  eV     1   --> A              
     e( 24 - 24) =      7.09537  eV     1   --> A              

 **************************************************************************

 **************************************************************************

                    xk=(   0.25530,   0.14741,   0.00000  )

     Band symmetry, C_1 (1)     point group:

     e(  1 -  1) =    -20.06878  eV     1   --> A              
     e(  2 -  2) =    -18.20684  eV     1   --> A              
     e(  3 -  3) =    -16.86534  eV     1   --> A              
     e(  4 -  4) =    -14.93379  eV     1   --> A              
     e(  5 -  5) =    -13.42187  eV     1   --> A              
     e(  6 -  6) =     -7.92174  eV     1   --> A              
     e(  7 -  7) =     -6.91363  eV     1   --> A              
     e(  8 -  8) =     -5.91540  eV     1   --> A              
     e(  9 -  9) =     -5.05661  eV     1   --> A              
     e( 10 - 10) =     -4.10087  eV     1   --> A              
     e( 11 - 11) =     -3.47101  eV     1   --> A              
     e( 12 - 12) =     -3.21744  eV     1   --> A              
     e( 13 - 13) =     -2.60397  eV     1   --> A              
     e( 14 - 14) =     -1.50319  eV     1   --> A              
     e( 15 - 15) =     -1.37858  eV     1   --> A              
     e( 16 - 16) =     -0.66766  eV     1   --> A              
     e( 17 - 17) =     -0.40857  eV     1   --> A              
     e( 18 - 18) =      1.24512  eV     1   --> A              
     e( 19 - 19) =      1.57715  eV     1   --> A              
     e( 20 - 20) =      3.85898  eV     1   --> A              
     e( 21 - 21) =      4.42020  eV     1   --> A              
     e( 22 - 22) =      5.67273  eV     1   --> A              
     e( 23 - 23) =      6.01741  eV     1   --> A              
     e( 24 - 24) =      7.07755  eV     1   --> A              

 **************************************************************************

 **************************************************************************

                    xk=(   0.26640,   0.15381,   0.00000  )

     Band symmetry, C_1 (1)     point group:

     e(  1 -  1) =    -20.01456  eV     1   --> A              
     e(  2 -  2) =    -18.07006  eV     1   --> A              
     e(  3 -  3) =    -16.73366  eV     1   --> A              
     e(  4 -  4) =    -14.80779  eV     1   --> A              
     e(  5 -  5) =    -13.30140  eV     1   --> A              
     e(  6 -  6) =     -7.81872  eV     1   --> A              
     e(  7 -  7) =     -7.24054  eV     1   --> A              
     e(  8 -  8) =     -6.21095  eV     1   --> A              
     e(  9 -  9) =     -5.17155  eV     1   --> A              
     e( 10 - 10) =     -4.21071  eV     1   --> A              
     e( 11 - 11) =     -3.57818  eV     1   --> A              
     e( 12 - 12) =     -3.46139  eV     1   --> A              
     e( 13 - 13) =     -2.70708  eV     1   --> A              
     e( 14 - 14) =     -1.60021  eV     1   --> A              
     e( 15 - 15) =     -1.33623  eV     1   --> A              
     e( 16 - 16) =     -0.76431  eV     1   --> A              
     e( 17 - 17) =     -0.48568  eV     1   --> A              
     e( 18 - 18) =      1.21837  eV     1   --> A              
     e( 19 - 19) =      1.64346  eV     1   --> A              
     e( 20 - 20) =      3.62050  eV     1   --> A              
     e( 21 - 21) =      4.45042  eV     1   --> A              
     e( 22 - 22) =      5.50517  eV     1   --> A              
     e( 23 - 23) =      5.93604  eV     1   --> A              
     e( 24 - 24) =      7.05810  eV     1   --> A              

 **************************************************************************

 **************************************************************************

                    xk=(   0.27750,   0.16022,   0.00000  )

     Band symmetry, C_1 (1)     point group:

     e(  1 -  1) =    -19.96037  eV     1   --> A              
     e(  2 -  2) =    -17.92766  eV     1   --> A              
     e(  3 -  3) =    -16.59658  eV     1   --> A              
     e(  4 -  4) =    -14.67674  eV     1   --> A              
     e(  5 -  5) =    -13.17608  eV     1   --> A              
     e(  6 -  6) =     -7.72295  eV     1   --> A              
     e(  7 -  7) =     -7.56638  eV     1   --> A              
     e(  8 -  8) =     -6.50260  eV     1   --> A              
     e(  9 -  9) =     -5.34989  eV     1   --> A              
     e( 10 - 10) =     -4.27670  eV     1   --> A              
     e( 11 - 11) =     -3.68163  eV     1   --> A              
     e( 12 - 12) =     -3.67604  eV     1   --> A              
     e( 13 - 13) =     -2.80680  eV     1   --> A              
     e( 14 - 14) =     -1.69442  eV     1   --> A              
     e( 15 - 15) =     -1.30970  eV     1   --> A              
     e( 16 - 16) =     -0.85806  eV     1   --> A              
     e( 17 - 17) =     -0.54124  eV     1   --> A              
     e( 18 - 18) =      1.19236  eV     1   --> A              
     e( 19 - 19) =      1.71111  eV     1   --> A              
     e( 20 - 20) =      3.36887  eV     1   --> A              
     e( 21 - 21) =      4.49082  eV     1   --> A              
     e( 22 - 22) =      5.33447  eV     1   --> A              
     e( 23 - 23) =      5.85440  eV     1   --> A              
     e( 24 - 24) =      7.03655  eV     1   --> A              

 **************************************************************************

 **************************************************************************

                    xk=(   0.28860,   0.16663,   0.00000  )

     Band symmetry, C_1 (1)     point group:

     e(  1 -  1) =    -19.90649  eV     1   --> A              
     e(  2 -  2) =    -17.77973  eV     1   --> A              
     e(  3 -  3) =    -16.45416  eV     1   --> A              
     e(  4 -  4) =    -14.54070  eV     1   --> A              
     e(  5 -  5) =    -13.04592  eV     1   --> A              
     e(  6 -  6) =     -7.89339  eV     1   --> A              
     e(  7 -  7) =     -7.64293  eV     1   --> A              
     e(  8 -  8) =     -6.77843  eV     1   --> A              
     e(  9 -  9) =     -5.57135  eV     1   --> A              
     e( 10 - 10) =     -4.35555  eV     1   --> A              
     e( 11 - 11) =     -3.82557  eV     1   --> A              
     e( 12 - 12) =     -3.78137  eV     1   --> A              
     e( 13 - 13) =     -2.90295  eV     1   --> A              
     e( 14 - 14) =     -1.78550  eV     1   --> A              
     e( 15 - 15) =     -1.30462  eV     1   --> A              
     e( 16 - 16) =     -0.94890  eV     1   --> A              
     e( 17 - 17) =     -0.56996  eV     1   --> A              
     e( 18 - 18) =      1.16687  eV     1   --> A              
     e( 19 - 19) =      1.77979  eV     1   --> A              
     e( 20 - 20) =      3.11206  eV     1   --> A              
     e( 21 - 21) =      4.53231  eV     1   --> A              
     e( 22 - 22) =      5.16265  eV     1   --> A              
     e( 23 - 23) =      5.77284  eV     1   --> A              
     e( 24 - 24) =      7.01280  eV     1   --> A              

 **************************************************************************

 **************************************************************************

                    xk=(   0.29970,   0.17304,   0.00000  )

     Band symmetry, C_1 (1)     point group:

     e(  1 -  1) =    -19.85318  eV     1   --> A              
     e(  2 -  2) =    -17.62631  eV     1   --> A              
     e(  3 -  3) =    -16.30647  eV     1   --> A              
     e(  4 -  4) =    -14.39973  eV     1   --> A              
     e(  5 -  5) =    -12.91098  eV     1   --> A              
     e(  6 -  6) =     -8.21682  eV     1   --> A              
     e(  7 -  7) =     -7.61499  eV     1   --> A              
     e(  8 -  8) =     -7.00769  eV     1   --> A              
     e(  9 -  9) =     -5.81550  eV     1   --> A              
     e( 10 - 10) =     -4.49891  eV     1   --> A              
     e( 11 - 11) =     -3.87708  eV     1   --> A              
     e( 12 - 12) =     -3.87588  eV     1   --> A              
     e( 13 - 13) =     -2.99543  eV     1   --> A              
     e( 14 - 14) =     -1.87323  eV     1   --> A              
     e( 15 - 15) =     -1.32241  eV     1   --> A              
     e( 16 - 16) =     -1.03620  eV     1   --> A              
     e( 17 - 17) =     -0.56935  eV     1   --> A              
     e( 18 - 18) =      1.14224  eV     1   --> A              
     e( 19 - 19) =      1.84937  eV     1   --> A              
     e( 20 - 20) =      2.85413  eV     1   --> A              
     e( 21 - 21) =      4.56823  eV     1   --> A              
     e( 22 - 22) =      4.99472  eV     1   --> A              
     e( 23 - 23) =      5.69171  eV     1   --> A              
     e( 24 - 24) =      6.98687  eV     1   --> A              

 **************************************************************************

 **************************************************************************

                    xk=(   0.31080,   0.17945,   0.00000  )

     Band symmetry, C_1 (1)     point group:

     e(  1 -  1) =    -19.80073  eV     1   --> A              
     e(  2 -  2) =    -17.46756  eV     1   --> A              
     e(  3 -  3) =    -16.15362  eV     1   --> A              
     e(  4 -  4) =    -14.25393  eV     1   --> A              
     e(  5 -  5) =    -12.77139  eV     1   --> A              
     e(  6 -  6) =     -8.53841  eV     1   --> A              
     e(  7 -  7) =     -7.70526  eV     1   --> A              
     e(  8 -  8) =     -7.12603  eV     1   --> A              
     e(  9 -  9) =     -6.06896  eV     1   --> A              
     e( 10 - 10) =     -4.69197  eV     1   --> A              
     e( 11 - 11) =     -3.96897  eV     1   --> A              
     e( 12 - 12) =     -3.85210  eV     1   --> A              
     e( 13 - 13) =     -3.08409  eV     1   --> A              
     e( 14 - 14) =     -1.95739  eV     1   --> A              
     e( 15 - 15) =     -1.36007  eV     1   --> A              
     e( 16 - 16) =     -1.11998  eV     1   --> A              
     e( 17 - 17) =     -0.54345  eV     1   --> A              
     e( 18 - 18) =      1.11799  eV     1   --> A              
     e( 19 - 19) =      1.91932  eV     1   --> A              
     e( 20 - 20) =      2.59673  eV     1   --> A              
     e( 21 - 21) =      4.58086  eV     1   --> A              
     e( 22 - 22) =      4.84751  eV     1   --> A              
     e( 23 - 23) =      5.61101  eV     1   --> A              
     e( 24 - 24) =      6.95880  eV     1   --> A              

 **************************************************************************

 **************************************************************************

                    xk=(   0.32190,   0.18586,   0.00000  )

     Band symmetry, C_1 (1)     point group:

     e(  1 -  1) =    -19.74939  eV     1   --> A              
     e(  2 -  2) =    -17.30355  eV     1   --> A              
     e(  3 -  3) =    -15.99571  eV     1   --> A              
     e(  4 -  4) =    -14.10342  eV     1   --> A              
     e(  5 -  5) =    -12.62727  eV     1   --> A              
     e(  6 -  6) =     -8.85745  eV     1   --> A              
     e(  7 -  7) =     -7.91872  eV     1   --> A              
     e(  8 -  8) =     -7.13645  eV     1   --> A              
     e(  9 -  9) =     -6.32034  eV     1   --> A              
     e( 10 - 10) =     -4.89861  eV     1   --> A              
     e( 11 - 11) =     -4.05630  eV     1   --> A              
     e( 12 - 12) =     -3.79291  eV     1   --> A              
     e( 13 - 13) =     -3.16856  eV     1   --> A              
     e( 14 - 14) =     -2.03767  eV     1   --> A              
     e( 15 - 15) =     -1.41021  eV     1   --> A              
     e( 16 - 16) =     -1.19981  eV     1   --> A              
     e( 17 - 17) =     -0.49892  eV     1   --> A              
     e( 18 - 18) =      1.09486  eV     1   --> A              
     e( 19 - 19) =      1.98912  eV     1   --> A              
     e( 20 - 20) =      2.34161  eV     1   --> A              
     e( 21 - 21) =      4.51693  eV     1   --> A              
     e( 22 - 22) =      4.77494  eV     1   --> A              
     e( 23 - 23) =      5.53106  eV     1   --> A              
     e( 24 - 24) =      6.92880  eV     1   --> A              

 **************************************************************************

 **************************************************************************

                    xk=(   0.33300,   0.19227,   0.00000  )

     Band symmetry, C_1 (1)     point group:

     e(  1 -  1) =    -19.69944  eV     1   --> A              
     e(  2 -  2) =    -17.13444  eV     1   --> A              
     e(  3 -  3) =    -15.83288  eV     1   --> A              
     e(  4 -  4) =    -13.94833  eV     1   --> A              
     e(  5 -  5) =    -12.47870  eV     1   --> A              
     e(  6 -  6) =     -9.17342  eV     1   --> A              
     e(  7 -  7) =     -8.18439  eV     1   --> A              
     e(  8 -  8) =     -7.12846  eV     1   --> A              
     e(  9 -  9) =     -6.55370  eV     1   --> A              
     e( 10 - 10) =     -5.09712  eV     1   --> A              
     e( 11 - 11) =     -4.13912  eV     1   --> A              
     e( 12 - 12) =     -3.71813  eV     1   --> A              
     e( 13 - 13) =     -3.24888  eV     1   --> A              
     e( 14 - 14) =     -2.11411  eV     1   --> A              
     e( 15 - 15) =     -1.46619  eV     1   --> A              
     e( 16 - 16) =     -1.27568  eV     1   --> A              
     e( 17 - 17) =     -0.44249  eV     1   --> A              
     e( 18 - 18) =      1.07249  eV     1   --> A              
     e( 19 - 19) =      2.05240  eV     1   --> A              
     e( 20 - 20) =      2.09628  eV     1   --> A              
     e( 21 - 21) =      4.37271  eV     1   --> A              
     e( 22 - 22) =      4.78093  eV     1   --> A              
     e( 23 - 23) =      5.45188  eV     1   --> A              
     e( 24 - 24) =      6.89711  eV     1   --> A              

 **************************************************************************

 **************************************************************************

                    xk=(   0.33857,   0.17624,   0.00000  )

     Band symmetry, C_1 (1)     point group:

     e(  1 -  1) =    -19.71017  eV     1   --> A              
     e(  2 -  2) =    -17.17218  eV     1   --> A              
     e(  3 -  3) =    -15.86921  eV     1   --> A              
     e(  4 -  4) =    -13.98292  eV     1   --> A              
     e(  5 -  5) =    -12.51184  eV     1   --> A              
     e(  6 -  6) =     -9.09302  eV     1   --> A              
     e(  7 -  7) =     -8.11384  eV     1   --> A              
     e(  8 -  8) =     -7.12429  eV     1   --> A              
     e(  9 -  9) =     -6.49678  eV     1   --> A              
     e( 10 - 10) =     -5.04701  eV     1   --> A              
     e( 11 - 11) =     -4.14861  eV     1   --> A              
     e( 12 - 12) =     -3.73576  eV     1   --> A              
     e( 13 - 13) =     -3.25532  eV     1   --> A              
     e( 14 - 14) =     -2.12068  eV     1   --> A              
     e( 15 - 15) =     -1.44949  eV     1   --> A              
     e( 16 - 16) =     -1.27836  eV     1   --> A              
     e( 17 - 17) =     -0.45362  eV     1   --> A              
     e( 18 - 18) =      1.06926  eV     1   --> A              
     e( 19 - 19) =      2.04349  eV     1   --> A              
     e( 20 - 20) =      2.15271  eV     1   --> A              
     e( 21 - 21) =      4.41605  eV     1   --> A              
     e( 22 - 22) =      4.77920  eV     1   --> A              
     e( 23 - 23) =      5.49731  eV     1   --> A              
     e( 24 - 24) =      6.91931  eV     1   --> A              

 **************************************************************************

 **************************************************************************

                    xk=(   0.34413,   0.16020,   0.00000  )

     Band symmetry, C_1 (1)     point group:

     e(  1 -  1) =    -19.71780  eV     1   --> A              
     e(  2 -  2) =    -17.19984  eV     1   --> A              
     e(  3 -  3) =    -15.89581  eV     1   --> A              
     e(  4 -  4) =    -14.00823  eV     1   --> A              
     e(  5 -  5) =    -12.53613  eV     1   --> A              
     e(  6 -  6) =     -9.00901  eV     1   --> A              
     e(  7 -  7) =     -8.04085  eV     1   --> A              
     e(  8 -  8) =     -7.11551  eV     1   --> A              
     e(  9 -  9) =     -6.43421  eV     1   --> A              
     e( 10 - 10) =     -4.99161  eV     1   --> A              
     e( 11 - 11) =     -4.21566  eV     1   --> A              
     e( 12 - 12) =     -3.74983  eV     1   --> A              
     e( 13 - 13) =     -3.31169  eV     1   --> A              
     e( 14 - 14) =     -2.17558  eV     1   --> A              
     e( 15 - 15) =     -1.43115  eV     1   --> A              
     e( 16 - 16) =     -1.31999  eV     1   --> A              
     e( 17 - 17) =     -0.45736  eV     1   --> A              
     e( 18 - 18) =      1.04876  eV     1   --> A              
     e( 19 - 19) =      2.03768  eV     1   --> A              
     e( 20 - 20) =      2.20966  eV     1   --> A              
     e( 21 - 21) =      4.46449  eV     1   --> A              
     e( 22 - 22) =      4.78414  eV     1   --> A              
     e( 23 - 23) =      5.59200  eV     1   --> A              
     e( 24 - 24) =      6.96474  eV     1   --> A              

 **************************************************************************

 **************************************************************************

                    xk=(   0.34970,   0.14417,   0.00000  )

     Band symmetry, C_1 (1)     point group:

     e(  1 -  1) =    -19.72228  eV     1   --> A              
     e(  2 -  2) =    -17.21741  eV     1   --> A              
     e(  3 -  3) =    -15.91268  eV     1   --> A              
     e(  4 -  4) =    -14.02425  eV     1   --> A              
     e(  5 -  5) =    -12.55155  eV     1   --> A              
     e(  6 -  6) =     -8.92222  eV     1   --> A              
     e(  7 -  7) =     -7.96626  eV     1   --> A              
     e(  8 -  8) =     -7.10119  eV     1   --> A              
     e(  9 -  9) =     -6.36741  eV     1   --> A              
     e( 10 - 10) =     -4.93194  eV     1   --> A              
     e( 11 - 11) =     -4.33471  eV     1   --> A              
     e( 12 - 12) =     -3.76362  eV     1   --> A              
     e( 13 - 13) =     -3.40997  eV     1   --> A              
     e( 14 - 14) =     -2.27376  eV     1   --> A              
     e( 15 - 15) =     -1.44274  eV     1   --> A              
     e( 16 - 16) =     -1.36816  eV     1   --> A              
     e( 17 - 17) =     -0.45434  eV     1   --> A              
     e( 18 - 18) =      1.01258  eV     1   --> A              
     e( 19 - 19) =      2.03775  eV     1   --> A              
     e( 20 - 20) =      2.26238  eV     1   --> A              
     e( 21 - 21) =      4.51594  eV     1   --> A              
     e( 22 - 22) =      4.79376  eV     1   --> A              
     e( 23 - 23) =      5.72921  eV     1   --> A              
     e( 24 - 24) =      7.02044  eV     1   --> A              

 **************************************************************************

 **************************************************************************

                    xk=(   0.35527,   0.12814,   0.00000  )

     Band symmetry, C_1 (1)     point group:

     e(  1 -  1) =    -19.72358  eV     1   --> A              
     e(  2 -  2) =    -17.22486  eV     1   --> A              
     e(  3 -  3) =    -15.91980  eV     1   --> A              
     e(  4 -  4) =    -14.03098  eV     1   --> A              
     e(  5 -  5) =    -12.55810  eV     1   --> A              
     e(  6 -  6) =     -8.83388  eV     1   --> A              
     e(  7 -  7) =     -7.89120  eV     1   --> A              
     e(  8 -  8) =     -7.08069  eV     1   --> A              
     e(  9 -  9) =     -6.29786  eV     1   --> A              
     e( 10 - 10) =     -4.86922  eV     1   --> A              
     e( 11 - 11) =     -4.49814  eV     1   --> A              
     e( 12 - 12) =     -3.78985  eV     1   --> A              
     e( 13 - 13) =     -3.53064  eV     1   --> A              
     e( 14 - 14) =     -2.40851  eV     1   --> A              
     e( 15 - 15) =     -1.54743  eV     1   --> A              
     e( 16 - 16) =     -1.35651  eV     1   --> A              
     e( 17 - 17) =     -0.44542  eV     1   --> A              
     e( 18 - 18) =      0.96348  eV     1   --> A              
     e( 19 - 19) =      2.04348  eV     1   --> A              
     e( 20 - 20) =      2.30864  eV     1   --> A              
     e( 21 - 21) =      4.56748  eV     1   --> A              
     e( 22 - 22) =      4.80629  eV     1   --> A              
     e( 23 - 23) =      5.89726  eV     1   --> A              
     e( 24 - 24) =      7.07067  eV     1   --> A              

 **************************************************************************

 **************************************************************************

                    xk=(   0.36083,   0.11211,   0.00000  )

     Band symmetry, C_1 (1)     point group:

     e(  1 -  1) =    -19.72172  eV     1   --> A              
     e(  2 -  2) =    -17.22221  eV     1   --> A              
     e(  3 -  3) =    -15.91719  eV     1   --> A              
     e(  4 -  4) =    -14.02844  eV     1   --> A              
     e(  5 -  5) =    -12.55577  eV     1   --> A              
     e(  6 -  6) =     -8.74583  eV     1   --> A              
     e(  7 -  7) =     -7.81742  eV     1   --> A              
     e(  8 -  8) =     -7.05394  eV     1   --> A              
     e(  9 -  9) =     -6.22784  eV     1   --> A              
     e( 10 - 10) =     -4.80617  eV     1   --> A              
     e( 11 - 11) =     -4.69623  eV     1   --> A              
     e( 12 - 12) =     -3.87159  eV     1   --> A              
     e( 13 - 13) =     -3.62278  eV     1   --> A              
     e( 14 - 14) =     -2.57275  eV     1   --> A              
     e( 15 - 15) =     -1.69596  eV     1   --> A              
     e( 16 - 16) =     -1.33040  eV     1   --> A              
     e( 17 - 17) =     -0.43179  eV     1   --> A              
     e( 18 - 18) =      0.90393  eV     1   --> A              
     e( 19 - 19) =      2.05411  eV     1   --> A              
     e( 20 - 20) =      2.34621  eV     1   --> A              
     e( 21 - 21) =      4.61564  eV     1   --> A              
     e( 22 - 22) =      4.81994  eV     1   --> A              
     e( 23 - 23) =      6.08034  eV     1   --> A              
     e( 24 - 24) =      7.10592  eV     1   --> A              

 **************************************************************************

 **************************************************************************

                    xk=(   0.36640,   0.09608,   0.00000  )

     Band symmetry, C_1 (1)     point group:

     e(  1 -  1) =    -19.71676  eV     1   --> A              
     e(  2 -  2) =    -17.20947  eV     1   --> A              
     e(  3 -  3) =    -15.90485  eV     1   --> A              
     e(  4 -  4) =    -14.01663  eV     1   --> A              
     e(  5 -  5) =    -12.54458  eV     1   --> A              
     e(  6 -  6) =     -8.66078  eV     1   --> A              
     e(  7 -  7) =     -7.74697  eV     1   --> A              
     e(  8 -  8) =     -7.02135  eV     1   --> A              
     e(  9 -  9) =     -6.15978  eV     1   --> A              
     e( 10 - 10) =     -4.92431  eV     1   --> A              
     e( 11 - 11) =     -4.74034  eV     1   --> A              
     e( 12 - 12) =     -4.03611  eV     1   --> A              
     e( 13 - 13) =     -3.64982  eV     1   --> A              
     e( 14 - 14) =     -2.75852  eV     1   --> A              
     e( 15 - 15) =     -1.86991  eV     1   --> A              
     e( 16 - 16) =     -1.30286  eV     1   --> A              
     e( 17 - 17) =     -0.41444  eV     1   --> A              
     e( 18 - 18) =      0.83657  eV     1   --> A              
     e( 19 - 19) =      2.06909  eV     1   --> A              
     e( 20 - 20) =      2.37267  eV     1   --> A              
     e( 21 - 21) =      4.65738  eV     1   --> A              
     e( 22 - 22) =      4.83365  eV     1   --> A              
     e( 23 - 23) =      6.26089  eV     1   --> A              
     e( 24 - 24) =      7.12588  eV     1   --> A              

 **************************************************************************

 **************************************************************************

                    xk=(   0.37197,   0.08004,   0.00000  )

     Band symmetry, C_1 (1)     point group:

     e(  1 -  1) =    -19.70877  eV     1   --> A              
     e(  2 -  2) =    -17.18664  eV     1   --> A              
     e(  3 -  3) =    -15.88278  eV     1   --> A              
     e(  4 -  4) =    -13.99556  eV     1   --> A              
     e(  5 -  5) =    -12.52453  eV     1   --> A              
     e(  6 -  6) =     -8.58243  eV     1   --> A              
     e(  7 -  7) =     -7.68251  eV     1   --> A              
     e(  8 -  8) =     -6.98402  eV     1   --> A              
     e(  9 -  9) =     -6.09714  eV     1   --> A              
     e( 10 - 10) =     -5.16432  eV     1   --> A              
     e( 11 - 11) =     -4.68413  eV     1   --> A              
     e( 12 - 12) =     -4.23952  eV     1   --> A              
     e( 13 - 13) =     -3.64468  eV     1   --> A              
     e( 14 - 14) =     -2.95658  eV     1   --> A              
     e( 15 - 15) =     -2.06048  eV     1   --> A              
     e( 16 - 16) =     -1.27635  eV     1   --> A              
     e( 17 - 17) =     -0.39418  eV     1   --> A              
     e( 18 - 18) =      0.76457  eV     1   --> A              
     e( 19 - 19) =      2.08793  eV     1   --> A              
     e( 20 - 20) =      2.38569  eV     1   --> A              
     e( 21 - 21) =      4.68924  eV     1   --> A              
     e( 22 - 22) =      4.84702  eV     1   --> A              
     e( 23 - 23) =      6.42313  eV     1   --> A              
     e( 24 - 24) =      7.13371  eV     1   --> A              

 **************************************************************************

 **************************************************************************

                    xk=(   0.37753,   0.06401,   0.00000  )

     Band symmetry, C_1 (1)     point group:

     e(  1 -  1) =    -19.69787  eV     1   --> A              
     e(  2 -  2) =    -17.15376  eV     1   --> A              
     e(  3 -  3) =    -15.85103  eV     1   --> A              
     e(  4 -  4) =    -13.96525  eV     1   --> A              
     e(  5 -  5) =    -12.49562  eV     1   --> A              
     e(  6 -  6) =     -8.51629  eV     1   --> A              
     e(  7 -  7) =     -7.62769  eV     1   --> A              
     e(  8 -  8) =     -6.94388  eV     1   --> A              
     e(  9 -  9) =     -6.04455  eV     1   --> A              
     e( 10 - 10) =     -5.40874  eV     1   --> A              
     e( 11 - 11) =     -4.65131  eV     1   --> A              
     e( 12 - 12) =     -4.43794  eV     1   --> A              
     e( 13 - 13) =     -3.62938  eV     1   --> A              
     e( 14 - 14) =     -3.15475  eV     1   --> A              
     e( 15 - 15) =     -2.25892  eV     1   --> A              
     e( 16 - 16) =     -1.25245  eV     1   --> A              
     e( 17 - 17) =     -0.37180  eV     1   --> A              
     e( 18 - 18) =      0.69164  eV     1   --> A              
     e( 19 - 19) =      2.11007  eV     1   --> A              
     e( 20 - 20) =      2.38318  eV     1   --> A              
     e( 21 - 21) =      4.70690  eV     1   --> A              
     e( 22 - 22) =      4.86157  eV     1   --> A              
     e( 23 - 23) =      6.55555  eV     1   --> A              
     e( 24 - 24) =      7.13323  eV     1   --> A              

 **************************************************************************

 **************************************************************************

                    xk=(   0.38310,   0.04798,   0.00000  )

     Band symmetry, C_1 (1)     point group:

     e(  1 -  1) =    -19.68423  eV     1   --> A              
     e(  2 -  2) =    -17.11086  eV     1   --> A              
     e(  3 -  3) =    -15.80963  eV     1   --> A              
     e(  4 -  4) =    -13.92577  eV     1   --> A              
     e(  5 -  5) =    -12.45793  eV     1   --> A              
     e(  6 -  6) =     -8.47018  eV     1   --> A              
     e(  7 -  7) =     -7.58767  eV     1   --> A              
     e(  8 -  8) =     -6.90404  eV     1   --> A              
     e(  9 -  9) =     -6.00835  eV     1   --> A              
     e( 10 - 10) =     -5.64426  eV     1   --> A              
     e( 11 - 11) =     -4.73708  eV     1   --> A              
     e( 12 - 12) =     -4.52463  eV     1   --> A              
     e( 13 - 13) =     -3.62028  eV     1   --> A              
     e( 14 - 14) =     -3.33253  eV     1   --> A              
     e( 15 - 15) =     -2.45536  eV     1   --> A              
     e( 16 - 16) =     -1.23309  eV     1   --> A              
     e( 17 - 17) =     -0.34806  eV     1   --> A              
     e( 18 - 18) =      0.62140  eV     1   --> A              
     e( 19 - 19) =      2.13511  eV     1   --> A              
     e( 20 - 20) =      2.36301  eV     1   --> A              
     e( 21 - 21) =      4.70597  eV     1   --> A              
     e( 22 - 22) =      4.87948  eV     1   --> A              
     e( 23 - 23) =      6.65149  eV     1   --> A              
     e( 24 - 24) =      7.12790  eV     1   --> A              

 **************************************************************************

 **************************************************************************

                    xk=(   0.38867,   0.03195,   0.00000  )

     Band symmetry, C_1 (1)     point group:

     e(  1 -  1) =    -19.66802  eV     1   --> A              
     e(  2 -  2) =    -17.05796  eV     1   --> A              
     e(  3 -  3) =    -15.75861  eV     1   --> A              
     e(  4 -  4) =    -13.87714  eV     1   --> A              
     e(  5 -  5) =    -12.41148  eV     1   --> A              
     e(  6 -  6) =     -8.45436  eV     1   --> A              
     e(  7 -  7) =     -7.56977  eV     1   --> A              
     e(  8 -  8) =     -6.86816  eV     1   --> A              
     e(  9 -  9) =     -5.99675  eV     1   --> A              
     e( 10 - 10) =     -5.85595  eV     1   --> A              
     e( 11 - 11) =     -4.91301  eV     1   --> A              
     e( 12 - 12) =     -4.52020  eV     1   --> A              
     e( 13 - 13) =     -3.65924  eV     1   --> A              
     e( 14 - 14) =     -3.43890  eV     1   --> A              
     e( 15 - 15) =     -2.63749  eV     1   --> A              
     e( 16 - 16) =     -1.22017  eV     1   --> A              
     e( 17 - 17) =     -0.32340  eV     1   --> A              
     e( 18 - 18) =      0.55750  eV     1   --> A              
     e( 19 - 19) =      2.16250  eV     1   --> A              
     e( 20 - 20) =      2.32367  eV     1   --> A              
     e( 21 - 21) =      4.68422  eV     1   --> A              
     e( 22 - 22) =      4.90140  eV     1   --> A              
     e( 23 - 23) =      6.70822  eV     1   --> A              
     e( 24 - 24) =      7.12204  eV     1   --> A              

 **************************************************************************

 **************************************************************************

                    xk=(   0.39423,   0.01592,   0.00000  )

     Band symmetry, C_1 (1)     point group:

     e(  1 -  1) =    -19.64946  eV     1   --> A              
     e(  2 -  2) =    -16.99512  eV     1   --> A              
     e(  3 -  3) =    -15.69803  eV     1   --> A              
     e(  4 -  4) =    -13.81942  eV     1   --> A              
     e(  5 -  5) =    -12.35631  eV     1   --> A              
     e(  6 -  6) =     -8.48100  eV     1   --> A              
     e(  7 -  7) =     -7.58421  eV     1   --> A              
     e(  8 -  8) =     -6.83941  eV     1   --> A              
     e(  9 -  9) =     -6.03701  eV     1   --> A              
     e( 10 - 10) =     -6.01008  eV     1   --> A              
     e( 11 - 11) =     -5.07017  eV     1   --> A              
     e( 12 - 12) =     -4.52819  eV     1   --> A              
     e( 13 - 13) =     -3.76108  eV     1   --> A              
     e( 14 - 14) =     -3.44907  eV     1   --> A              
     e( 15 - 15) =     -2.79036  eV     1   --> A              
     e( 16 - 16) =     -1.21568  eV     1   --> A              
     e( 17 - 17) =     -0.29815  eV     1   --> A              
     e( 18 - 18) =      0.50332  eV     1   --> A              
     e( 19 - 19) =      2.18894  eV     1   --> A              
     e( 20 - 20) =      2.26725  eV     1   --> A              
     e( 21 - 21) =      4.64209  eV     1   --> A              
     e( 22 - 22) =      4.92589  eV     1   --> A              
     e( 23 - 23) =      6.72543  eV     1   --> A              
     e( 24 - 24) =      7.11873  eV     1   --> A              

 **************************************************************************

 **************************************************************************

                    xk=(   0.39980,  -0.00012,   0.00000  )

     Band symmetry, C_1 (1)     point group:

     e(  1 -  1) =    -19.62881  eV     1   --> A              
     e(  2 -  2) =    -16.92241  eV     1   --> A              
     e(  3 -  3) =    -15.62794  eV     1   --> A              
     e(  4 -  4) =    -13.75269  eV     1   --> A              
     e(  5 -  5) =    -12.29249  eV     1   --> A              
     e(  6 -  6) =     -8.56077  eV     1   --> A              
     e(  7 -  7) =     -7.64257  eV     1   --> A              
     e(  8 -  8) =     -6.81967  eV     1   --> A              
     e(  9 -  9) =     -6.15337  eV     1   --> A              
     e( 10 - 10) =     -6.07595  eV     1   --> A              
     e( 11 - 11) =     -5.18251  eV     1   --> A              
     e( 12 - 12) =     -4.57153  eV     1   --> A              
     e( 13 - 13) =     -3.85407  eV     1   --> A              
     e( 14 - 14) =     -3.42657  eV     1   --> A              
     e( 15 - 15) =     -2.89806  eV     1   --> A              
     e( 16 - 16) =     -1.22144  eV     1   --> A              
     e( 17 - 17) =     -0.27231  eV     1   --> A              
     e( 18 - 18) =      0.46227  eV     1   --> A              
     e( 19 - 19) =      2.16682  eV     1   --> A              
     e( 20 - 20) =      2.24040  eV     1   --> A              
     e( 21 - 21) =      4.58065  eV     1   --> A              
     e( 22 - 22) =      4.95129  eV     1   --> A              
     e( 23 - 23) =      6.70640  eV     1   --> A              
     e( 24 - 24) =      7.11804  eV     1   --> A              

 **************************************************************************

[...]
     e(  6 -  6) =     -8.69317  eV     1   --> A              
     e(  7 -  7) =     -5.48498  eV     1   --> A              
     e(  8 -  8) =     -4.30216  eV     1   --> A              
     e(  9 -  9) =     -3.46202  eV     1   --> A              
     e( 10 - 10) =     -2.53963  eV     1   --> A              
     e( 11 - 11) =     -2.20652  eV     1   --> A              
     e( 12 - 12) =     -1.78175  eV     1   --> A              
     e( 13 - 13) =     -1.71374  eV     1   --> A              
     e( 14 - 14) =     -1.13396  eV     1   --> A              
     e( 15 - 15) =     -0.67471  eV     1   --> A              
     e( 16 - 16) =      0.16169  eV     1   --> A              
     e( 17 - 17) =      0.48438  eV     1   --> A              
     e( 18 - 18) =      1.12641  eV     1   --> A              
     e( 19 - 19) =      1.46534  eV     1   --> A              
     e( 20 - 20) =      3.89777  eV     1   --> A              
     e( 21 - 21) =      5.89272  eV     1   --> A              
     e( 22 - 22) =      6.49169  eV     1   --> A              
     e( 23 - 23) =      6.80076  eV     1   --> A              
     e( 24 - 24) =      7.29938  eV     1   --> A              

 **************************************************************************

 **************************************************************************

                    xk=(   0.15000,  -0.08661,   0.00000  )

     Band symmetry, C_1 (1)     point group:

     e(  1 -  1) =    -20.53871  eV     1   --> A              
     e(  2 -  2) =    -19.21783  eV     1   --> A              
     e(  3 -  3) =    -17.83985  eV     1   --> A              
     e(  4 -  4) =    -15.86962  eV     1   --> A              
     e(  5 -  5) =    -14.31481  eV     1   --> A              
     e(  6 -  6) =     -8.80996  eV     1   --> A              
     e(  7 -  7) =     -5.57178  eV     1   --> A              
     e(  8 -  8) =     -3.85152  eV     1   --> A              
     e(  9 -  9) =     -3.06432  eV     1   --> A              
     e( 10 - 10) =     -2.36163  eV     1   --> A              
     e( 11 - 11) =     -1.99900  eV     1   --> A              
     e( 12 - 12) =     -1.65996  eV     1   --> A              
     e( 13 - 13) =     -1.54529  eV     1   --> A              
     e( 14 - 14) =     -0.76661  eV     1   --> A              
     e( 15 - 15) =     -0.52074  eV     1   --> A              
     e( 16 - 16) =      0.31725  eV     1   --> A              
     e( 17 - 17) =      0.64847  eV     1   --> A              
     e( 18 - 18) =      1.07344  eV     1   --> A              
     e( 19 - 19) =      1.50628  eV     1   --> A              
     e( 20 - 20) =      3.81897  eV     1   --> A              
     e( 21 - 21) =      6.20809  eV     1   --> A              
     e( 22 - 22) =      6.51584  eV     1   --> A              
     e( 23 - 23) =      6.95555  eV     1   --> A              
     e( 24 - 24) =      7.39117  eV     1   --> A              

 **************************************************************************

 **************************************************************************

                    xk=(   0.13333,  -0.07698,   0.00000  )

     Band symmetry, C_1 (1)     point group:

     e(  1 -  1) =    -20.59854  eV     1   --> A              
     e(  2 -  2) =    -19.32965  eV     1   --> A              
     e(  3 -  3) =    -17.94793  eV     1   --> A              
     e(  4 -  4) =    -15.97384  eV     1   --> A              
     e(  5 -  5) =    -14.41402  eV     1   --> A              
     e(  6 -  6) =     -8.91542  eV     1   --> A              
     e(  7 -  7) =     -5.65533  eV     1   --> A              
     e(  8 -  8) =     -3.41690  eV     1   --> A              
     e(  9 -  9) =     -2.71864  eV     1   --> A              
     e( 10 - 10) =     -2.18830  eV     1   --> A              
     e( 11 - 11) =     -1.95531  eV     1   --> A              
     e( 12 - 12) =     -1.38195  eV     1   --> A              
     e( 13 - 13) =     -1.34895  eV     1   --> A              
     e( 14 - 14) =     -0.41698  eV     1   --> A              
     e( 15 - 15) =     -0.37247  eV     1   --> A              
     e( 16 - 16) =      0.46759  eV     1   --> A              
     e( 17 - 17) =      0.77360  eV     1   --> A              
     e( 18 - 18) =      1.06092  eV     1   --> A              
     e( 19 - 19) =      1.54637  eV     1   --> A              
     e( 20 - 20) =      3.74151  eV     1   --> A              
     e( 21 - 21) =      6.45354  eV     1   --> A              
     e( 22 - 22) =      6.56784  eV     1   --> A              
     e( 23 - 23) =      7.09507  eV     1   --> A              
     e( 24 - 24) =      7.49239  eV     1   --> A              

 **************************************************************************

 **************************************************************************

                    xk=(   0.11667,  -0.06736,   0.00000  )

     Band symmetry, C_1 (1)     point group:

     e(  1 -  1) =    -20.65267  eV     1   --> A              
     e(  2 -  2) =    -19.42825  eV     1   --> A              
     e(  3 -  3) =    -18.04331  eV     1   --> A              
     e(  4 -  4) =    -16.06591  eV     1   --> A              
     e(  5 -  5) =    -14.50162  eV     1   --> A              
     e(  6 -  6) =     -9.00917  eV     1   --> A              
     e(  7 -  7) =     -5.73212  eV     1   --> A              
     e(  8 -  8) =     -3.00667  eV     1   --> A              
     e(  9 -  9) =     -2.48224  eV     1   --> A              
     e( 10 - 10) =     -2.02265  eV     1   --> A              
     e( 11 - 11) =     -1.85808  eV     1   --> A              
     e( 12 - 12) =     -1.22648  eV     1   --> A              
     e( 13 - 13) =     -1.01825  eV     1   --> A              
     e( 14 - 14) =     -0.23256  eV     1   --> A              
     e( 15 - 15) =     -0.09044  eV     1   --> A              
     e( 16 - 16) =      0.61004  eV     1   --> A              
     e( 17 - 17) =      0.81372  eV     1   --> A              
     e( 18 - 18) =      1.13141  eV     1   --> A              
     e( 19 - 19) =      1.58499  eV     1   --> A              
     e( 20 - 20) =      3.66629  eV     1   --> A              
     e( 21 - 21) =      6.47217  eV     1   --> A              
     e( 22 - 22) =      6.80855  eV     1   --> A              
     e( 23 - 23) =      7.22113  eV     1   --> A              
     e( 24 - 24) =      7.59094  eV     1   --> A              

 **************************************************************************

 **************************************************************************

                    xk=(   0.10000,  -0.05774,   0.00000  )

     Band symmetry, C_1 (1)     point group:

     e(  1 -  1) =    -20.70061  eV     1   --> A              
     e(  2 -  2) =    -19.51364  eV     1   --> A              
     e(  3 -  3) =    -18.12599  eV     1   --> A              
     e(  4 -  4) =    -16.14577  eV     1   --> A              
     e(  5 -  5) =    -14.57758  eV     1   --> A              
     e(  6 -  6) =     -9.09099  eV     1   --> A              
     e(  7 -  7) =     -5.80052  eV     1   --> A              
     e(  8 -  8) =     -2.63463  eV     1   --> A              
     e(  9 -  9) =     -2.38280  eV     1   --> A              
     e( 10 - 10) =     -1.86790  eV     1   --> A              
     e( 11 - 11) =     -1.64471  eV     1   --> A              
     e( 12 - 12) =     -1.08218  eV     1   --> A              
     e( 13 - 13) =     -0.70663  eV     1   --> A              
     e( 14 - 14) =     -0.10376  eV     1   --> A              
     e( 15 - 15) =      0.20797  eV     1   --> A              
     e( 16 - 16) =      0.74187  eV     1   --> A              
     e( 17 - 17) =      0.79529  eV     1   --> A              
     e( 18 - 18) =      1.25639  eV     1   --> A              
     e( 19 - 19) =      1.62168  eV     1   --> A              
     e( 20 - 20) =      3.59449  eV     1   --> A              
     e( 21 - 21) =      6.44844  eV     1   --> A              
     e( 22 - 22) =      7.05745  eV     1   --> A              
     e( 23 - 23) =      7.33454  eV     1   --> A              
     e( 24 - 24) =      7.67564  eV     1   --> A              

 **************************************************************************

 **************************************************************************

                    xk=(   0.08333,  -0.04812,   0.00000  )

     Band symmetry, C_1 (1)     point group:

     e(  1 -  1) =    -20.74191  eV     1   --> A              
     e(  2 -  2) =    -19.58583  eV     1   --> A              
     e(  3 -  3) =    -18.19594  eV     1   --> A              
     e(  4 -  4) =    -16.21339  eV     1   --> A              
     e(  5 -  5) =    -14.64188  eV     1   --> A              
     e(  6 -  6) =     -9.16057  eV     1   --> A              
     e(  7 -  7) =     -5.85945  eV     1   --> A              
     e(  8 -  8) =     -2.42460  eV     1   --> A              
     e(  9 -  9) =     -2.23694  eV     1   --> A              
     e( 10 - 10) =     -1.72798  eV     1   --> A              
     e( 11 - 11) =     -1.38237  eV     1   --> A              
     e( 12 - 12) =     -0.95220  eV     1   --> A              
     e( 13 - 13) =     -0.42491  eV     1   --> A              
     e( 14 - 14) =      0.01122  eV     1   --> A              
     e( 15 - 15) =      0.47030  eV     1   --> A              
     e( 16 - 16) =      0.76579  eV     1   --> A              
     e( 17 - 17) =      0.86012  eV     1   --> A              
     e( 18 - 18) =      1.38784  eV     1   --> A              
     e( 19 - 19) =      1.65559  eV     1   --> A              
     e( 20 - 20) =      3.52763  eV     1   --> A              
     e( 21 - 21) =      6.41819  eV     1   --> A              
     e( 22 - 22) =      7.27967  eV     1   --> A              
     e( 23 - 23) =      7.43581  eV     1   --> A              
     e( 24 - 24) =      7.73713  eV     1   --> A              

 **************************************************************************

 **************************************************************************

                    xk=(   0.06667,  -0.03849,   0.00000  )

     Band symmetry, C_1 (1)     point group:

     e(  1 -  1) =    -20.77622  eV     1   --> A              
     e(  2 -  2) =    -19.64487  eV     1   --> A              
     e(  3 -  3) =    -18.25319  eV     1   --> A              
     e(  4 -  4) =    -16.26876  eV     1   --> A              
     e(  5 -  5) =    -14.69451  eV     1   --> A              
     e(  6 -  6) =     -9.21773  eV     1   --> A              
     e(  7 -  7) =     -5.90826  eV     1   --> A              
     e(  8 -  8) =     -2.41975  eV     1   --> A              
     e(  9 -  9) =     -1.95476  eV     1   --> A              
     e( 10 - 10) =     -1.60674  eV     1   --> A              
     e( 11 - 11) =     -1.13206  eV     1   --> A              
     e( 12 - 12) =     -0.84009  eV     1   --> A              
     e( 13 - 13) =     -0.18112  eV     1   --> A              
     e( 14 - 14) =      0.10955  eV     1   --> A              
     e( 15 - 15) =      0.65863  eV     1   --> A              
     e( 16 - 16) =      0.77142  eV     1   --> A              
     e( 17 - 17) =      0.96180  eV     1   --> A              
     e( 18 - 18) =      1.50770  eV     1   --> A              
     e( 19 - 19) =      1.68560  eV     1   --> A              
     e( 20 - 20) =      3.46761  eV     1   --> A              
     e( 21 - 21) =      6.38747  eV     1   --> A              
     e( 22 - 22) =      7.45879  eV     1   --> A              
     e( 23 - 23) =      7.53367  eV     1   --> A              
     e( 24 - 24) =      7.76771  eV     1   --> A              

 **************************************************************************

 **************************************************************************

                    xk=(   0.05000,  -0.02887,   0.00000  )

     Band symmetry, C_1 (1)     point group:

     e(  1 -  1) =    -20.80322  eV     1   --> A              
     e(  2 -  2) =    -19.69078  eV     1   --> A              
     e(  3 -  3) =    -18.29772  eV     1   --> A              
     e(  4 -  4) =    -16.31185  eV     1   --> A              
     e(  5 -  5) =    -14.73546  eV     1   --> A              
     e(  6 -  6) =     -9.26232  eV     1   --> A              
     e(  7 -  7) =     -5.94665  eV     1   --> A              
     e(  8 -  8) =     -2.43510  eV     1   --> A              
     e(  9 -  9) =     -1.71053  eV     1   --> A              
     e( 10 - 10) =     -1.50746  eV     1   --> A              
     e( 11 - 11) =     -0.91991  eV     1   --> A              
     e( 12 - 12) =     -0.74885  eV     1   --> A              
     e( 13 - 13) =      0.01858  eV     1   --> A              
     e( 14 - 14) =      0.18887  eV     1   --> A              
     e( 15 - 15) =      0.67205  eV     1   --> A              
     e( 16 - 16) =      0.91184  eV     1   --> A              
     e( 17 - 17) =      1.04417  eV     1   --> A              
     e( 18 - 18) =      1.60780  eV     1   --> A              
     e( 19 - 19) =      1.71077  eV     1   --> A              
     e( 20 - 20) =      3.41629  eV     1   --> A              
     e( 21 - 21) =      6.35989  eV     1   --> A              
     e( 22 - 22) =      7.55267  eV     1   --> A              
     e( 23 - 23) =      7.65914  eV     1   --> A              
     e( 24 - 24) =      7.76599  eV     1   --> A              

 **************************************************************************

 **************************************************************************

                    xk=(   0.03333,  -0.01925,   0.00000  )

     Band symmetry, C_1 (1)     point group:

     e(  1 -  1) =    -20.82268  eV     1   --> A              
     e(  2 -  2) =    -19.72356  eV     1   --> A              
     e(  3 -  3) =    -18.32952  eV     1   --> A              
     e(  4 -  4) =    -16.34264  eV     1   --> A              
     e(  5 -  5) =    -14.76470  eV     1   --> A              
     e(  6 -  6) =     -9.29424  eV     1   --> A              
     e(  7 -  7) =     -5.97421  eV     1   --> A              
     e(  8 -  8) =     -2.44985  eV     1   --> A              
     e(  9 -  9) =     -1.52648  eV     1   --> A              
     e( 10 - 10) =     -1.43357  eV     1   --> A              
     e( 11 - 11) =     -0.75962  eV     1   --> A              
     e( 12 - 12) =     -0.68120  eV     1   --> A              
     e( 13 - 13) =      0.16831  eV     1   --> A              
     e( 14 - 14) =      0.24716  eV     1   --> A              
     e( 15 - 15) =      0.65110  eV     1   --> A              
     e( 16 - 16) =      1.04370  eV     1   --> A              
     e( 17 - 17) =      1.10497  eV     1   --> A              
     e( 18 - 18) =      1.68332  eV     1   --> A              
     e( 19 - 19) =      1.73013  eV     1   --> A              
     e( 20 - 20) =      3.37691  eV     1   --> A              
     e( 21 - 21) =      6.33831  eV     1   --> A              
     e( 22 - 22) =      7.58731  eV     1   --> A              
     e( 23 - 23) =      7.73244  eV     1   --> A              
     e( 24 - 24) =      7.79114  eV     1   --> A              

 **************************************************************************

 **************************************************************************

                    xk=(   0.01667,  -0.00962,   0.00000  )

     Band symmetry, C_1 (1)     point group:

     e(  1 -  1) =    -20.83443  eV     1   --> A              
     e(  2 -  2) =    -19.74320  eV     1   --> A              
     e(  3 -  3) =    -18.34860  eV     1   --> A              
     e(  4 -  4) =    -16.36111  eV     1   --> A              
     e(  5 -  5) =    -14.78226  eV     1   --> A              
     e(  6 -  6) =     -9.31342  eV     1   --> A              
     e(  7 -  7) =     -5.99083  eV     1   --> A              
     e(  8 -  8) =     -2.45977  eV     1   --> A              
     e(  9 -  9) =     -1.41188  eV     1   --> A              
     e( 10 - 10) =     -1.38806  eV     1   --> A              
     e( 11 - 11) =     -0.65987  eV     1   --> A              
     e( 12 - 12) =     -0.63968  eV     1   --> A              
     e( 13 - 13) =      0.26227  eV     1   --> A              
     e( 14 - 14) =      0.28279  eV     1   --> A              
     e( 15 - 15) =      0.63421  eV     1   --> A              
     e( 16 - 16) =      1.12651  eV     1   --> A              
     e( 17 - 17) =      1.14225  eV     1   --> A              
     e( 18 - 18) =      1.73029  eV     1   --> A              
     e( 19 - 19) =      1.74231  eV     1   --> A              
     e( 20 - 20) =      3.35200  eV     1   --> A              
     e( 21 - 21) =      6.32466  eV     1   --> A              
     e( 22 - 22) =      7.58768  eV     1   --> A              
     e( 23 - 23) =      7.74073  eV     1   --> A              
     e( 24 - 24) =      7.77581  eV     1   --> A              

 **************************************************************************

 **************************************************************************

                    xk=(   0.00000,   0.00000,   0.00000  )

     point group C_s (m)    
     there are  2 classes
     the character table:

       E     s    
A'     1.00  1.00
A''    1.00 -1.00

     the symmetry operations in each class and the name of the first element:

     E        1
                                                                 
     s        2
                                                                 

     Band symmetry, C_s (m)     point group:

     e(  1 -  1) =    -20.83835  eV     1   --> A'             
     e(  2 -  2) =    -19.74973  eV     1   --> A'             
     e(  3 -  3) =    -18.35495  eV     1   --> A'             
     e(  4 -  4) =    -16.36727  eV     1   --> A'             
     e(  5 -  5) =    -14.78811  eV     1   --> A'             
     e(  6 -  6) =     -9.31982  eV     1   --> A'             
     e(  7 -  7) =     -5.99638  eV     1   --> A'             
     e(  8 -  8) =     -2.46324  eV     1   --> A'             
     e(  9 -  9) =     -1.37315  eV     1   --> A''            
     e( 10 - 10) =     -1.37280  eV     1   --> A'             
     e( 11 - 11) =     -0.62630  eV     1   --> A''            
     e( 12 - 12) =     -0.62598  eV     1   --> A'             
     e( 13 - 13) =      0.29455  eV     1   --> A''            
     e( 14 - 14) =      0.29482  eV     1   --> A'             
     e( 15 - 15) =      0.62761  eV     1   --> A'             
     e( 16 - 16) =      1.15452  eV     1   --> A''            
     e( 17 - 17) =      1.15479  eV     1   --> A'             
     e( 18 - 18) =      1.74627  eV     1   --> A''            
     e( 19 - 19) =      1.74648  eV     1   --> A'             
     e( 20 - 20) =      3.34352  eV     1   --> A'             
     e( 21 - 21) =      6.31996  eV     1   --> A'             
     e( 22 - 22) =      7.58270  eV     1   --> A'             
     e( 23 - 23) =      7.74914  eV     1   --> A''            
     e( 24 - 24) =      7.75018  eV     1   --> A'             

 **************************************************************************

     BANDS        :      3.00s CPU      3.25s WALL


   This run was terminated on:  14:39:45   2May2026            

=------------------------------------------------------------------------------=
   JOB DONE.
=------------------------------------------------------------------------------=
