
     Program PWSCF v.7.3 starts on  2May2026 at 14:15: 4 

     This program is part of the open-source Quantum ESPRESSO suite
     for quantum simulation of materials; please cite
         "P. Giannozzi et al., J. Phys.:Condens. Matter 21 395502 (2009);
         "P. Giannozzi et al., J. Phys.:Condens. Matter 29 465901 (2017);
         "P. Giannozzi et al., J. Chem. Phys. 152 154105 (2020);
          URL http://www.quantum-espresso.org", 
     in publications or presentations arising from this work. More details at
     http://www.quantum-espresso.org/quote

     Parallel version (MPI), running on     1 processors

     MPI processes distributed on     1 nodes
     6973 MiB available memory on the printing compute node when the environment starts

     Waiting for input...
     Reading input from standard input

     Current dimensions of program PWSCF are:
     Max number of different atomic species (ntypx) = 10
     Max number of k-points (npk) =  40000
     Max angular momentum in pseudopotentials (lmaxx) =  4
     file C.pbe-n-kjpaw_psl.1.0.0.UPF: wavefunction(s)  2S 2P renormalized

     Atomic positions and unit cell read from directory:
     ./tmp/diamond_bands.save/

     Message from routine setup:
     using ibrav=0 with symmetry is DISCOURAGED, use correct ibrav instead

     Subspace diagonalization in iterative solution of the eigenvalue problem:
     a serial algorithm will be used


     G-vector sticks info
     --------------------
     sticks:   dense  smooth     PW     G-vecs:    dense   smooth      PW
     Sum         253     253     85                25509    25509    4525

     Using Slab Decomposition



     bravais-lattice index     =            0
     lattice parameter (alat)  =       4.7659  a.u.
     unit-cell volume          =     743.4030 (a.u.)^3
     number of atoms/cell      =            8
     number of atomic types    =            1
     number of electrons       =        32.00
     number of Kohn-Sham states=           16
     kinetic-energy cutoff     =      40.0000  Ry
     charge density cutoff     =     160.0000  Ry
     Exchange-correlation= SLA  PW   PBX  PBC
                           (   1   4   3   4   0   0   0)

     celldm(1)=   4.765889  celldm(2)=   0.000000  celldm(3)=   0.000000
     celldm(4)=   0.000000  celldm(5)=   0.000000  celldm(6)=   0.000000

     crystal axes: (cart. coord. in units of alat)
               a(1) = (   1.000000   0.000000   0.000000 )  
               a(2) = (   0.500000   0.865979   0.000000 )  
               a(3) = (   0.000000   0.000000   7.930214 )  

     reciprocal axes: (cart. coord. in units 2 pi/alat)
               b(1) = (  1.000000 -0.577381  0.000000 )  
               b(2) = (  0.000000  1.154762  0.000000 )  
               b(3) = (  0.000000  0.000000  0.126100 )  


     PseudoPot. # 1 for C  read from file:
     /home/rania/diamond_project/C.pbe-n-kjpaw_psl.1.0.0.UPF
     MD5 check sum: 5f16ad9a65e90284d1d834d4ab3b0f7d
     Pseudo is Projector augmented-wave + core cor, Zval =  4.0
     Generated using &quot;atomic&quot; code by A. Dal Corso  v.6.3
     Shape of augmentation charge: PSQ
     Using radial grid of 1073 points,  4 beta functions with: 
                l(1) =   0
                l(2) =   0
                l(3) =   1
                l(4) =   1
     Q(r) pseudized with 0 coefficients 


     atomic species   valence    mass     pseudopotential
     C                 4.00    12.01100     C ( 1.00)

      2 Sym. Ops. (no inversion) found



   Cartesian axes

     site n.     atom                  positions (alat units)
         1        C      tau(   1) = (   0.0000000   0.0000000   0.0000000  )
         2        C      tau(   2) = (   0.5000000   0.2886598   0.2042030  )
         3        C      tau(   3) = (   0.0000000   0.0000000   0.8168121  )
         4        C      tau(   4) = (   0.5000000   0.2886598   1.0210151  )
         5        C      tau(   5) = (   0.0000000   0.0000000   1.6336241  )
         6        C      tau(   6) = (   0.5000000   0.2886598   1.8378271  )
         7        C      tau(   7) = (   0.0000000   0.0000000   2.4504362  )
         8        C      tau(   8) = (   0.5000000   0.2886598   2.6546392  )

     number of k points=    91
                       cart. coord. in units 2pi/alat
        k(    1) = (   0.0000000   0.0000000   0.0000000), wk =   0.0219780
        k(    2) = (   0.0111000   0.0064089   0.0000000), wk =   0.0219780
        k(    3) = (   0.0222000   0.0128179   0.0000000), wk =   0.0219780
        k(    4) = (   0.0333000   0.0192268   0.0000000), wk =   0.0219780
        k(    5) = (   0.0444000   0.0256357   0.0000000), wk =   0.0219780
        k(    6) = (   0.0555000   0.0320446   0.0000000), wk =   0.0219780
        k(    7) = (   0.0666000   0.0384536   0.0000000), wk =   0.0219780
        k(    8) = (   0.0777000   0.0448625   0.0000000), wk =   0.0219780
        k(    9) = (   0.0888000   0.0512714   0.0000000), wk =   0.0219780
        k(   10) = (   0.0999000   0.0576804   0.0000000), wk =   0.0219780
        k(   11) = (   0.1110000   0.0640893   0.0000000), wk =   0.0219780
        k(   12) = (   0.1221000   0.0704982   0.0000000), wk =   0.0219780
        k(   13) = (   0.1332000   0.0769071   0.0000000), wk =   0.0219780
        k(   14) = (   0.1443000   0.0833161   0.0000000), wk =   0.0219780
        k(   15) = (   0.1554000   0.0897250   0.0000000), wk =   0.0219780
        k(   16) = (   0.1665000   0.0961339   0.0000000), wk =   0.0219780
        k(   17) = (   0.1776000   0.1025429   0.0000000), wk =   0.0219780
        k(   18) = (   0.1887000   0.1089518   0.0000000), wk =   0.0219780
        k(   19) = (   0.1998000   0.1153607   0.0000000), wk =   0.0219780
        k(   20) = (   0.2109000   0.1217696   0.0000000), wk =   0.0219780
        k(   21) = (   0.2220000   0.1281786   0.0000000), wk =   0.0219780
        k(   22) = (   0.2331000   0.1345875   0.0000000), wk =   0.0219780
        k(   23) = (   0.2442000   0.1409964   0.0000000), wk =   0.0219780
        k(   24) = (   0.2553000   0.1474054   0.0000000), wk =   0.0219780
        k(   25) = (   0.2664000   0.1538143   0.0000000), wk =   0.0219780
        k(   26) = (   0.2775000   0.1602232   0.0000000), wk =   0.0219780
        k(   27) = (   0.2886000   0.1666321   0.0000000), wk =   0.0219780
        k(   28) = (   0.2997000   0.1730411   0.0000000), wk =   0.0219780
        k(   29) = (   0.3108000   0.1794500   0.0000000), wk =   0.0219780
        k(   30) = (   0.3219000   0.1858589   0.0000000), wk =   0.0219780
        k(   31) = (   0.3330000   0.1922679   0.0000000), wk =   0.0219780
        k(   32) = (   0.3385667   0.1762359   0.0000000), wk =   0.0219780
        k(   33) = (   0.3441333   0.1602040   0.0000000), wk =   0.0219780
        k(   34) = (   0.3497000   0.1441720   0.0000000), wk =   0.0219780
        k(   35) = (   0.3552667   0.1281401   0.0000000), wk =   0.0219780
        k(   36) = (   0.3608333   0.1121081   0.0000000), wk =   0.0219780
        k(   37) = (   0.3664000   0.0960762   0.0000000), wk =   0.0219780
        k(   38) = (   0.3719667   0.0800442   0.0000000), wk =   0.0219780
        k(   39) = (   0.3775333   0.0640123   0.0000000), wk =   0.0219780
        k(   40) = (   0.3831000   0.0479804   0.0000000), wk =   0.0219780
        k(   41) = (   0.3886667   0.0319484   0.0000000), wk =   0.0219780
        k(   42) = (   0.3942333   0.0159165   0.0000000), wk =   0.0219780
        k(   43) = (   0.3998000  -0.0001155   0.0000000), wk =   0.0219780
        k(   44) = (   0.4053667  -0.0161474   0.0000000), wk =   0.0219780
        k(   45) = (   0.4109333  -0.0321794   0.0000000), wk =   0.0219780
        k(   46) = (   0.4165000  -0.0482113   0.0000000), wk =   0.0219780
        k(   47) = (   0.4220667  -0.0642433   0.0000000), wk =   0.0219780
        k(   48) = (   0.4276333  -0.0802752   0.0000000), wk =   0.0219780
        k(   49) = (   0.4332000  -0.0963071   0.0000000), wk =   0.0219780
        k(   50) = (   0.4387667  -0.1123391   0.0000000), wk =   0.0219780
        k(   51) = (   0.4443333  -0.1283710   0.0000000), wk =   0.0219780
        k(   52) = (   0.4499000  -0.1444030   0.0000000), wk =   0.0219780
        k(   53) = (   0.4554667  -0.1604349   0.0000000), wk =   0.0219780
        k(   54) = (   0.4610333  -0.1764669   0.0000000), wk =   0.0219780
        k(   55) = (   0.4666000  -0.1924988   0.0000000), wk =   0.0219780
        k(   56) = (   0.4721667  -0.2085308   0.0000000), wk =   0.0219780
        k(   57) = (   0.4777333  -0.2245627   0.0000000), wk =   0.0219780
        k(   58) = (   0.4833000  -0.2405946   0.0000000), wk =   0.0219780
        k(   59) = (   0.4888667  -0.2566266   0.0000000), wk =   0.0219780
        k(   60) = (   0.4944333  -0.2726585   0.0000000), wk =   0.0219780
        k(   61) = (   0.5000000  -0.2886905   0.0000000), wk =   0.0219780
        k(   62) = (   0.4833333  -0.2790675   0.0000000), wk =   0.0219780
        k(   63) = (   0.4666667  -0.2694444   0.0000000), wk =   0.0219780
        k(   64) = (   0.4500000  -0.2598214   0.0000000), wk =   0.0219780
        k(   65) = (   0.4333333  -0.2501984   0.0000000), wk =   0.0219780
        k(   66) = (   0.4166667  -0.2405754   0.0000000), wk =   0.0219780
        k(   67) = (   0.4000000  -0.2309524   0.0000000), wk =   0.0219780
        k(   68) = (   0.3833333  -0.2213294   0.0000000), wk =   0.0219780
        k(   69) = (   0.3666667  -0.2117063   0.0000000), wk =   0.0219780
        k(   70) = (   0.3500000  -0.2020833   0.0000000), wk =   0.0219780
        k(   71) = (   0.3333333  -0.1924603   0.0000000), wk =   0.0219780
        k(   72) = (   0.3166667  -0.1828373   0.0000000), wk =   0.0219780
        k(   73) = (   0.3000000  -0.1732143   0.0000000), wk =   0.0219780
        k(   74) = (   0.2833333  -0.1635913   0.0000000), wk =   0.0219780
        k(   75) = (   0.2666667  -0.1539683   0.0000000), wk =   0.0219780
        k(   76) = (   0.2500000  -0.1443452   0.0000000), wk =   0.0219780
        k(   77) = (   0.2333333  -0.1347222   0.0000000), wk =   0.0219780
        k(   78) = (   0.2166667  -0.1250992   0.0000000), wk =   0.0219780
        k(   79) = (   0.2000000  -0.1154762   0.0000000), wk =   0.0219780
        k(   80) = (   0.1833333  -0.1058532   0.0000000), wk =   0.0219780
        k(   81) = (   0.1666667  -0.0962302   0.0000000), wk =   0.0219780
        k(   82) = (   0.1500000  -0.0866071   0.0000000), wk =   0.0219780
        k(   83) = (   0.1333333  -0.0769841   0.0000000), wk =   0.0219780
        k(   84) = (   0.1166667  -0.0673611   0.0000000), wk =   0.0219780
        k(   85) = (   0.1000000  -0.0577381   0.0000000), wk =   0.0219780
        k(   86) = (   0.0833333  -0.0481151   0.0000000), wk =   0.0219780
        k(   87) = (   0.0666667  -0.0384921   0.0000000), wk =   0.0219780
        k(   88) = (   0.0500000  -0.0288690   0.0000000), wk =   0.0219780
        k(   89) = (   0.0333333  -0.0192460   0.0000000), wk =   0.0219780
        k(   90) = (   0.0166667  -0.0096230   0.0000000), wk =   0.0219780
        k(   91) = (   0.0000000   0.0000000   0.0000000), wk =   0.0219780

     Dense  grid:    25509 G-vectors     FFT dimensions: (  20,  20, 160)

     Estimated max dynamical RAM per process >      31.91 MB

     Check: negative core charge=   -0.000029

     The potential is recalculated from file :
     ./tmp/diamond_bands.save/charge-density


     negative rho (up, down):  1.804E-03 0.000E+00
     Starting wfcs are   32 randomized atomic wfcs
     Checking if some PAW data can be deallocated... 

     Band Structure Calculation
     Davidson diagonalization with overlap

     ethr =  3.13E-11,  avg # of iterations = 30.8

     total cpu time spent up to now is       55.4 secs

     End of band structure calculation

          k = 0.0000 0.0000 0.0000 (  3185 PWs)   bands (ev):

   -19.8329 -18.5360 -16.5087 -14.8882  -9.3343  -5.8939  -1.9330  -1.3339
    -1.3335  -0.3694  -0.3690   0.8689   0.8692   1.2508   1.2511   2.0239

          k = 0.0111 0.0064 0.0000 (  3183 PWs)   bands (ev):

   -19.8299 -18.5330 -16.5058 -14.8854  -9.3313  -5.8911  -1.9309  -1.3510
    -1.3404  -0.3844  -0.3753   0.8548   0.8631   1.2388   1.2454   2.0267

          k = 0.0222 0.0128 0.0000 (  3179 PWs)   bands (ev):

   -19.8208 -18.5240 -16.4970 -14.8771  -9.3224  -5.8828  -1.9250  -1.4023
    -1.3606  -0.4298  -0.3947   0.8126   0.8450   1.2026   1.2286   2.0350

          k = 0.0333 0.0192 0.0000 (  3183 PWs)   bands (ev):

   -19.8057 -18.5090 -16.4823 -14.8633  -9.3075  -5.8690  -1.9155  -1.4868
    -1.3944  -0.5041  -0.4267   0.7432   0.8151   1.1429   1.2009   2.0485

          k = 0.0444 0.0256 0.0000 (  3183 PWs)   bands (ev):

   -19.7844 -18.4880 -16.4618 -14.8440  -9.2867  -5.8497  -1.9031  -1.6023
    -1.4407  -0.6052  -0.4707   0.6475   0.7740   1.0604   1.1627   2.0672

          k = 0.0555 0.0320 0.0000 (  3183 PWs)   bands (ev):

   -19.7572 -18.4610 -16.4354 -14.8191  -9.2600  -5.8250  -1.8894  -1.7465
    -1.4989  -0.7302  -0.5261   0.5272   0.7222   0.9562   1.1145   2.0911

          k = 0.0666 0.0385 0.0000 (  3171 PWs)   bands (ev):

   -19.7238 -18.4280 -16.4032 -14.7887  -9.2274  -5.7950  -1.9227  -1.8708
    -1.5679  -0.8745  -0.5918   0.3839   0.6607   0.8316   1.0570   2.1197

          k = 0.0777 0.0449 0.0000 (  3175 PWs)   bands (ev):

   -19.6845 -18.3890 -16.3651 -14.7528  -9.1889  -5.7597  -2.1155  -1.8657
    -1.6467  -1.0309  -0.6670   0.2197   0.5901   0.6880   0.9911   2.1527

          k = 0.0888 0.0513 0.0000 (  3169 PWs)   bands (ev):

   -19.6391 -18.3440 -16.3212 -14.7114  -9.1446  -5.7192  -2.3319  -1.8745
    -1.7342  -1.1862  -0.7507   0.0363   0.5113   0.5267   0.9174   2.1903

          k = 0.0999 0.0577 0.0000 (  3175 PWs)   bands (ev):

   -19.5877 -18.2931 -16.2715 -14.6646  -9.0946  -5.6737  -2.5675  -1.9220
    -1.8295  -1.3158  -0.8419  -0.1641   0.3493   0.4254   0.8370   2.2322

          k = 0.1110 0.0641 0.0000 (  3177 PWs)   bands (ev):

   -19.5303 -18.2362 -16.2159 -14.6122  -9.0388  -5.6234  -2.8195  -2.0353
    -1.9315  -1.3905  -0.9394  -0.3795   0.1574   0.3332   0.7505   2.2784

          k = 0.1221 0.0705 0.0000 (  3177 PWs)   bands (ev):

   -19.4668 -18.1734 -16.1546 -14.5544  -8.9775  -5.5686  -3.0855  -2.2157
    -2.0387  -1.4072  -1.0423  -0.6080  -0.0477   0.2359   0.6589   2.3288

          k = 0.1332 0.0769 0.0000 (  3171 PWs)   bands (ev):

   -19.3974 -18.1046 -16.0874 -14.4911  -8.9105  -5.5098  -3.3633  -2.4414
    -2.1503  -1.3862  -1.1495  -0.8473  -0.2644   0.1342   0.5632   2.3832

          k = 0.1443 0.0833 0.0000 (  3173 PWs)   bands (ev):

   -19.3220 -18.0299 -16.0145 -14.4224  -8.8381  -5.4477  -3.6506  -2.6942
    -2.2653  -1.3459  -1.2602  -1.0937  -0.4918   0.0292   0.4639   2.4415

          k = 0.1554 0.0897 0.0000 (  3168 PWs)   bands (ev):

   -19.2407 -17.9494 -15.9359 -14.3483  -8.7602  -5.3835  -3.9451  -2.9647
    -2.3828  -1.3756  -1.3735  -1.2642  -0.7282  -0.0786   0.3620   2.5036

          k = 0.1665 0.0961 0.0000 (  3160 PWs)   bands (ev):

   -19.1534 -17.8629 -15.8515 -14.2687  -8.6772  -5.3196  -4.2435  -3.2471
    -2.5020  -1.6262  -1.4884  -1.2101  -0.9723  -0.1880   0.2582   2.5695

          k = 0.1776 0.1025 0.0000 (  3152 PWs)   bands (ev):

   -19.0601 -17.7706 -15.7614 -14.1838  -8.5892  -5.2630  -4.5387  -3.5380
    -2.6221  -1.8927  -1.6044  -1.2240  -1.1355  -0.2987   0.1531   2.6389

          k = 0.1887 0.1090 0.0000 (  3156 PWs)   bands (ev):

   -18.9610 -17.6725 -15.6657 -14.0936  -8.4964  -5.2399  -4.8050  -3.8348
    -2.7423  -2.1625  -1.7207  -1.4803  -1.0544  -0.4100   0.0473   2.7115

          k = 0.1998 0.1154 0.0000 (  3150 PWs)   bands (ev):

   -18.8560 -17.5686 -15.5643 -13.9980  -8.3991  -5.3493  -4.9454  -4.1341
    -2.8621  -2.4319  -1.8368  -1.7414  -0.9664  -0.5210  -0.0585   2.7872

          k = 0.2109 0.1218 0.0000 (  3154 PWs)   bands (ev):

   -18.7452 -17.4589 -15.4574 -13.8971  -8.2976  -5.6104  -4.9481  -4.4293
    -2.9810  -2.6972  -2.0060  -1.9521  -0.8728  -0.6314  -0.1638   2.8652

          k = 0.2220 0.1282 0.0000 (  3146 PWs)   bands (ev):

   -18.6285 -17.3435 -15.3448 -13.7909  -8.1924  -5.9171  -4.9562  -4.6857
    -3.0983  -2.9528  -2.2731  -2.0659  -0.7737  -0.7406  -0.2681   2.9453

          k = 0.2331 0.1346 0.0000 (  3148 PWs)   bands (ev):

   -18.5062 -17.2224 -15.2267 -13.6796  -8.0843  -6.2370  -5.1370  -4.7757
    -3.2137  -3.1901  -2.5417  -2.1778  -0.8482  -0.6698  -0.3708   3.0262

          k = 0.2442 0.1410 0.0000 (  3152 PWs)   bands (ev):

   -18.3780 -17.0956 -15.1032 -13.5630  -7.9743  -6.5614  -5.4235  -4.7853
    -3.3946  -3.3266  -2.8107  -2.2875  -0.9537  -0.5612  -0.4719   3.1058

          k = 0.2553 0.1474 0.0000 (  3150 PWs)   bands (ev):

   -18.2442 -16.9633 -14.9742 -13.4414  -7.8639  -6.8879  -5.7254  -4.8248
    -3.5465  -3.4367  -3.0785  -2.3946  -1.0568  -0.5706  -0.4482   3.1784

          k = 0.2664 0.1538 0.0000 (  3160 PWs)   bands (ev):

   -18.1048 -16.8254 -14.8398 -13.3146  -7.7559  -7.2151  -6.0274  -4.9249
    -3.6308  -3.5440  -3.3418  -2.4990  -1.1572  -0.6670  -0.3310   3.2229

          k = 0.2775 0.1602 0.0000 (  3160 PWs)   bands (ev):

   -17.9598 -16.6821 -14.7001 -13.1828  -7.6561  -7.5415  -6.3220  -5.0885
    -3.6794  -3.6476  -3.5667  -2.5999  -1.2546  -0.7605  -0.2100   3.1621

          k = 0.2886 0.1666 0.0000 (  3166 PWs)   bands (ev):

   -17.8094 -16.5333 -14.5552 -13.0462  -7.8685  -7.5743  -6.5972  -5.2999
    -3.8882  -3.7474  -3.5725  -2.6971  -1.3486  -0.8512  -0.0853   2.9605

          k = 0.2997 0.1730 0.0000 (  3156 PWs)   bands (ev):

   -17.6535 -16.3793 -14.4052 -12.9046  -8.1927  -7.5444  -6.8237  -5.5406
    -4.1357  -3.8433  -3.4959  -2.7906  -1.4390  -0.9382   0.0427   2.7078

          k = 0.3108 0.1794 0.0000 (  3166 PWs)   bands (ev):

   -17.4924 -16.2201 -14.2502 -12.7583  -8.5150  -7.6234  -6.9462  -5.7976
    -4.3767  -3.9352  -3.3923  -2.8802  -1.5256  -1.0219   0.1734   2.4412

          k = 0.3219 0.1859 0.0000 (  3172 PWs)   bands (ev):

   -17.3260 -16.0558 -14.0903 -12.6074  -8.8348  -7.8219  -6.9595  -6.0612
    -4.6036  -4.0227  -3.2720  -2.9656  -1.6081  -1.1016   0.3065   2.1703

          k = 0.3330 0.1923 0.0000 (  3188 PWs)   bands (ev):

   -17.1547 -15.8866 -13.9257 -12.4520  -9.1516  -8.0805  -6.9338  -6.3227
    -4.8091  -4.1056  -3.1403  -3.0466  -1.6867  -1.1773   0.4415   1.8988

          k = 0.3386 0.1762 0.0000 (  3174 PWs)   bands (ev):

   -17.1929 -15.9243 -13.9624 -12.4867  -9.0710  -8.0111  -6.9362  -6.2568
    -4.7580  -4.1151  -3.1776  -3.0469  -1.6918  -1.1802   0.4125   1.9644

          k = 0.3441 0.1602 0.0000 (  3177 PWs)   bands (ev):

   -17.2209 -15.9520 -13.9893 -12.5121  -8.9868  -7.9396  -6.9314  -6.1873
    -4.7006  -4.1822  -3.2254  -3.0817  -1.7441  -1.2248   0.3929   2.0250

          k = 0.3497 0.1442 0.0000 (  3187 PWs)   bands (ev):

   -17.2387 -15.9696 -14.0064 -12.5283  -8.8998  -7.8668  -6.9187  -6.1153
    -4.6381  -4.3016  -3.3075  -3.1229  -1.8397  -1.3087   0.3826   2.0796

          k = 0.3553 0.1281 0.0000 (  3181 PWs)   bands (ev):

   -17.2463 -15.9770 -14.0136 -12.5353  -8.8114  -7.7939  -6.8980  -6.0419
    -4.5713  -4.4655  -3.4423  -3.1451  -1.9729  -1.4275   0.3811   2.1263

          k = 0.3608 0.1121 0.0000 (  3175 PWs)   bands (ev):

   -17.2436 -15.9743 -14.0111 -12.5330  -8.7232  -7.7226  -6.8695  -5.9693
    -4.6652  -4.5018  -3.6208  -3.1500  -2.1366  -1.5760   0.3881   2.1634

          k = 0.3664 0.0961 0.0000 (  3174 PWs)   bands (ev):

   -17.2307 -15.9616 -13.9986 -12.5214  -8.6381  -7.6546  -6.8339  -5.8998
    -4.8908  -4.4319  -3.8282  -3.1435  -2.3224  -1.7481   0.4031   2.1885

          k = 0.3720 0.0800 0.0000 (  3174 PWs)   bands (ev):

   -17.2076 -15.9387 -13.9764 -12.5005  -8.5598  -7.5926  -6.7926  -5.8369
    -5.1318  -4.3651  -4.0515  -3.1294  -2.5201  -1.9368   0.4259   2.1991

          k = 0.3775 0.0640 0.0000 (  3168 PWs)   bands (ev):

   -17.1744 -15.9058 -13.9444 -12.4704  -8.4937  -7.5398  -6.7478  -5.7854
    -5.3766  -4.3280  -4.2560  -3.1138  -2.7149  -2.1336   0.4563   2.1931

          k = 0.3831 0.0480 0.0000 (  3168 PWs)   bands (ev):

   -17.1309 -15.8629 -13.9026 -12.4312  -8.4477  -7.5011  -6.7032  -5.7519
    -5.6120  -4.5138  -4.2419  -3.1187  -2.8746  -2.3285   0.4940   2.1680

          k = 0.3887 0.0319 0.0000 (  3168 PWs)   bands (ev):

   -17.0774 -15.8099 -13.8512 -12.3828  -8.4321  -7.4835  -6.6625  -5.8264
    -5.7416  -4.7129  -4.2133  -3.2005  -2.9316  -2.5086   0.5389   2.1216

          k = 0.3942 0.0159 0.0000 (  3176 PWs)   bands (ev):

   -17.0138 -15.7471 -13.7901 -12.3253  -8.4589  -7.4967  -6.6295  -5.9991
    -5.7688  -4.8774  -4.2149  -3.3249  -2.9089  -2.6574   0.5908   2.0528

          k = 0.3998-0.0001 0.0000 (  3177 PWs)   bands (ev):

   -16.9402 -15.6745 -13.7194 -12.2587  -8.5390  -7.5522  -6.6054  -6.1200
    -5.8376  -4.9932  -4.2583  -3.4276  -2.8664  -2.7543   0.6495   1.9603

          k = 0.4054-0.0161 0.0000 (  3170 PWs)   bands (ev):

   -16.8567 -15.5921 -13.6393 -12.1832  -8.6771  -7.6592  -6.5892  -6.1826
    -5.9524  -5.0535  -4.3470  -3.4892  -2.8469  -2.7614   0.7147   1.8443

          k = 0.4109-0.0322 0.0000 (  3174 PWs)   bands (ev):

   -16.7635 -15.5000 -13.5498 -12.0989  -8.8688  -7.8193  -6.5807  -6.1895
    -6.1104  -5.0608  -4.4718  -3.5073  -2.8357  -2.7001   0.7858   1.7056

          k = 0.4165-0.0482 0.0000 (  3174 PWs)   bands (ev):

   -16.6606 -15.3985 -13.4512 -12.0058  -9.1034  -8.0259  -6.5890  -6.2999
    -6.1490  -5.0251  -4.6136  -3.4857  -2.7945  -2.6217   0.8626   1.5458

          k = 0.4221-0.0642 0.0000 (  3166 PWs)   bands (ev):

   -16.5483 -15.2878 -13.3435 -11.9043  -9.3690  -8.2679  -6.6578  -6.4742
    -6.0742  -4.9642  -4.7446  -3.4319  -2.7282  -2.5347   0.9442   1.3676

          k = 0.4276-0.0803 0.0000 (  3160 PWs)   bands (ev):

   -16.4267 -15.1679 -13.2271 -11.7944  -9.6548  -8.5343  -6.8543  -6.5700
    -5.9743  -4.9387  -4.7938  -3.3541  -2.6452  -2.4414   1.0289   1.1747

          k = 0.4332-0.0963 0.0000 (  3179 PWs)   bands (ev):

   -16.2962 -15.0394 -13.1023 -11.6766  -9.9526  -8.8160  -7.1087  -6.6599
    -5.8577  -4.9894  -4.7126  -3.2594  -2.5523  -2.3427   0.9652   1.1209

          k = 0.4388-0.1123 0.0000 (  3179 PWs)   bands (ev):

   -16.1572 -14.9024 -12.9693 -11.5512 -10.2562  -9.1060  -7.3795  -6.7837
    -5.7307  -5.0177  -4.5974  -3.1537  -2.4543  -2.2396   0.7516   1.2102

          k = 0.4443-0.1284 0.0000 (  3175 PWs)   bands (ev):

   -16.0101 -14.7577 -12.8289 -11.4189 -10.5607  -9.3990  -7.6560  -6.9438
    -5.5983  -5.0055  -4.4732  -3.0415  -2.3547  -2.1331   0.5328   1.2997

          k = 0.4499-0.1444 0.0000 (  3181 PWs)   bands (ev):

   -15.8556 -14.6059 -12.6816 -11.2817 -10.8613  -9.6911  -7.9327  -7.1323
    -5.4649  -4.9585  -4.3471  -2.9272  -2.2567  -2.0246   0.3131   1.3858

          k = 0.4555-0.1604 0.0000 (  3176 PWs)   bands (ev):

   -15.6948 -14.4479 -12.5284 -11.1942 -11.1009  -9.9786  -8.2057  -7.3392
    -5.3339  -4.8859  -4.2232  -2.8141  -2.1625  -1.9155   0.0971   1.4640

          k = 0.4610-0.1765 0.0000 (  3178 PWs)   bands (ev):

   -15.5290 -14.2852 -12.3707 -11.4565 -10.9778 -10.2585  -8.4716  -7.5560
    -5.2088  -4.7968  -4.1051  -2.7055  -2.0742  -1.8082  -0.1107   1.5280

          k = 0.4666-0.1925 0.0000 (  3183 PWs)   bands (ev):

   -15.3602 -14.1199 -12.2107 -11.7321 -10.8274 -10.5273  -8.7266  -7.7751
    -5.0927  -4.6988  -3.9958  -2.6041  -1.9935  -1.7058  -0.3049   1.5689

          k = 0.4722-0.2085 0.0000 (  3189 PWs)   bands (ev):

   -15.1914 -13.9550 -12.0513 -11.9932 -10.7807 -10.6765  -8.9659  -7.9900
    -4.9885  -4.5990  -3.8979  -2.5125  -1.9222  -1.6129  -0.4791   1.5786

          k = 0.4777-0.2246 0.0000 (  3196 PWs)   bands (ev):

   -15.0276 -13.7952 -12.2339 -11.8975 -11.0129 -10.5308  -9.1833  -8.1942
    -4.8989  -4.5038  -3.8140  -2.4330  -1.8618  -1.5352  -0.6259   1.5558

          k = 0.4833-0.2406 0.0000 (  3198 PWs)   bands (ev):

   -14.8761 -13.6481 -12.4455 -11.7576 -11.2148 -10.3990  -9.3692  -8.3792
    -4.8264  -4.4200  -3.7464  -2.3678  -1.8133  -1.4790  -0.7376   1.5116

          k = 0.4889-0.2566 0.0000 (  3202 PWs)   bands (ev):

   -14.7486 -13.5247 -12.6162 -11.6464 -11.3708 -10.2937  -9.5103  -8.5331
    -4.7730  -4.3539  -3.6969  -2.3190  -1.7781  -1.4476  -0.8097   1.4636

          k = 0.4944-0.2727 0.0000 (  3204 PWs)   bands (ev):

   -14.6608 -13.4401 -12.7301 -11.5938 -11.4505 -10.2287  -9.5944  -8.6389
    -4.7402  -4.3115  -3.6667  -2.2886  -1.7566  -1.4362  -0.8462   1.4279

          k = 0.5000-0.2887 0.0000 (  3200 PWs)   bands (ev):

   -14.6291 -13.4096 -12.7705 -11.5950 -11.4584 -10.2079  -9.6207  -8.6773
    -4.7292  -4.2968  -3.6565  -2.2782  -1.7495  -1.4342  -0.8566   1.4149

          k = 0.4833-0.2791 0.0000 (  3204 PWs)   bands (ev):

   -14.7034 -13.4812 -12.6851 -11.6147 -11.4265 -10.2595  -9.5637  -8.5970
    -4.7228  -4.3332  -3.6503  -2.2723  -1.7436  -1.4468  -0.8333   1.4405

          k = 0.4667-0.2694 0.0000 (  3200 PWs)   bands (ev):

   -14.8950 -13.6667 -12.4603 -11.7754 -11.2292 -10.4151  -9.3838  -8.3937
    -4.7037  -4.4350  -3.6316  -2.2541  -1.7260  -1.5054  -0.7417   1.4997

          k = 0.4500-0.2598 0.0000 (  3194 PWs)   bands (ev):

   -15.1510 -13.9160 -12.1490 -12.0137 -10.9314 -10.6395  -9.1095  -8.1253
    -4.6720  -4.5843  -3.6005  -2.2238  -1.6966  -1.6297  -0.5626   1.5417

          k = 0.4333-0.2502 0.0000 (  3180 PWs)   bands (ev):

   -15.4361 -14.1948 -12.2830 -11.7872 -10.8943 -10.5807  -8.7801  -7.8284
    -4.7594  -4.6276  -3.5570  -2.1816  -1.8060  -1.6558  -0.3099   1.5113

          k = 0.4167-0.2406 0.0000 (  3172 PWs)   bands (ev):

   -15.7316 -14.4847 -12.5639 -11.3982 -11.1549 -10.1979  -8.4185  -7.5256
    -4.9377  -4.5707  -3.5014  -2.1276  -2.0138  -1.6035  -0.0050   1.4019

          k = 0.4000-0.2310 0.0000 (  3188 PWs)   bands (ev):

   -16.0282 -14.7763 -12.8468 -11.4352 -10.9686  -9.7937  -8.0373  -7.2385
    -5.0938  -4.5017  -3.4339  -2.2381  -2.0621  -1.5402   0.3358   1.2419

          k = 0.3833-0.2213 0.0000 (  3174 PWs)   bands (ev):

   -16.3208 -15.0642 -13.1263 -11.6974 -10.5365  -9.3746  -7.6457  -6.9948
    -5.1927  -4.4206  -3.3546  -2.4688  -1.9851  -1.4656   0.7016   1.0566

          k = 0.3667-0.2117 0.0000 (  3176 PWs)   bands (ev):

   -16.6063 -15.3456 -13.3996 -11.9554 -10.0889  -8.9455  -7.2600  -6.8239
    -5.1905  -4.3277  -3.2637  -2.6990  -1.8970  -1.3804   0.8527   1.0910

          k = 0.3500-0.2021 0.0000 (  3180 PWs)   bands (ev):

   -16.8829 -15.6184 -13.6648 -12.2058  -9.6297  -8.5127  -6.9689  -6.6641
    -5.0588  -4.2234  -3.1617  -2.9233  -1.7982  -1.2849   0.6501   1.4861

          k = 0.3333-0.1925 0.0000 (  3188 PWs)   bands (ev):

   -17.1494 -15.8815 -13.9207 -12.4473  -9.1610  -8.0887  -6.9331  -6.3304
    -4.8149  -4.1080  -3.1362  -3.0490  -1.6890  -1.1795   0.4455   1.8906

          k = 0.3167-0.1828 0.0000 (  3172 PWs)   bands (ev):

   -17.4051 -16.1339 -14.1663 -12.6791  -8.6844  -7.7171  -6.9627  -5.9366
    -4.4988  -3.9820  -3.3304  -2.9259  -1.5697  -1.0645   0.2435   2.2982

          k = 0.3000-0.1732 0.0000 (  3156 PWs)   bands (ev):

   -17.6492 -16.3751 -14.4011 -12.9007  -8.2015  -7.5448  -6.8287  -5.5473
    -4.1423  -3.8458  -3.4934  -2.7931  -1.4414  -0.9405   0.0462   2.7007

          k = 0.2833-0.1636 0.0000 (  3164 PWs)   bands (ev):

   -17.8814 -16.6046 -14.6246 -13.1116  -7.7146  -7.6083  -6.4702  -5.1950
    -3.7744  -3.7005  -3.5909  -2.6514  -1.3044  -0.8085  -0.1449   3.0673

          k = 0.2667-0.1540 0.0000 (  3160 PWs)   bands (ev):

   -18.1014 -16.8220 -14.8365 -13.3115  -7.7533  -7.2230  -6.0346  -4.9282
    -3.6320  -3.5465  -3.3480  -2.5014  -1.1596  -0.6693  -0.3282   3.2231

          k = 0.2500-0.1443 0.0000 (  3150 PWs)   bands (ev):

   -18.3088 -17.0272 -15.0364 -13.5001  -7.9165  -6.7318  -5.5807  -4.7995
    -3.4818  -3.3845  -2.9511  -2.3438  -1.0079  -0.5238  -0.5027   3.1453

          k = 0.2333-0.1347 0.0000 (  3148 PWs)   bands (ev):

   -18.5035 -17.2198 -15.2242 -13.6772  -8.0820  -6.2438  -5.1426  -4.7761
    -3.2161  -3.1948  -2.5473  -2.1801  -0.8504  -0.6676  -0.3730   3.0279

          k = 0.2167-0.1251 0.0000 (  3150 PWs)   bands (ev):

   -18.6853 -17.3996 -15.3996 -13.8426  -8.2434  -5.7672  -4.9422  -4.5732
    -3.0422  -2.8316  -2.1446  -2.0114  -0.8219  -0.6883  -0.2181   2.9067

          k = 0.2000-0.1155 0.0000 (  3150 PWs)   bands (ev):

   -18.8540 -17.5666 -15.5625 -13.9962  -8.3973  -5.3531  -4.9463  -4.1395
    -2.8643  -2.4367  -1.8389  -1.7461  -0.9648  -0.5230  -0.0604   2.7886

          k = 0.1833-0.1059 0.0000 (  3154 PWs)   bands (ev):

   -19.0097 -17.7207 -15.7127 -14.1379  -8.5419  -5.2432  -4.6835  -3.6908
    -2.6842  -2.0320  -1.6645  -1.3557  -1.0946  -0.3562   0.0985   2.6760

          k = 0.1667-0.0962 0.0000 (  3160 PWs)   bands (ev):

   -19.1520 -17.8616 -15.8502 -14.2675  -8.6759  -5.3187  -4.2480  -3.2514
    -2.5038  -1.6302  -1.4902  -1.2091  -0.9760  -0.1897   0.2566   2.5705

          k = 0.1500-0.0866 0.0000 (  3175 PWs)   bands (ev):

   -19.2810 -17.9893 -15.9749 -14.3851  -8.7988  -5.4148  -3.8013  -2.8314
    -2.3254  -1.3280  -1.3181  -1.2150  -0.6122  -0.0259   0.4119   2.4729

          k = 0.1333-0.0770 0.0000 (  3171 PWs)   bands (ev):

   -19.3965 -18.1037 -16.0866 -14.4903  -8.9096  -5.5091  -3.3667  -2.4443
    -2.1517  -1.3858  -1.1509  -0.8502  -0.2671   0.1330   0.5620   2.3838

          k = 0.1167-0.0674 0.0000 (  3173 PWs)   bands (ev):

   -19.4986 -18.2049 -16.1853 -14.5834  -9.0082  -5.5959  -2.9537  -2.1202
    -1.9856  -1.4051  -0.9913  -0.4946   0.0542   0.2842   0.7043   2.3036

          k = 0.1000-0.0577 0.0000 (  3175 PWs)   bands (ev):

   -19.5872 -18.2926 -16.2710 -14.6641  -9.0941  -5.6732  -2.5697  -1.9227
    -1.8304  -1.3168  -0.8427  -0.1660   0.3476   0.4245   0.8362   2.2326

          k = 0.0833-0.0481 0.0000 (  3167 PWs)   bands (ev):

   -19.6622 -18.3669 -16.3435 -14.7325  -9.1672  -5.7397  -2.2227  -1.8670
    -1.6900  -1.1110  -0.7084   0.1289   0.5511   0.6082   0.9546   2.1712

          k = 0.0667-0.0385 0.0000 (  3171 PWs)   bands (ev):

   -19.7236 -18.4278 -16.4030 -14.7885  -9.2272  -5.7948  -1.9237  -1.8708
    -1.5684  -0.8754  -0.5922   0.3830   0.6603   0.8308   1.0567   2.1199

          k = 0.0500-0.0289 0.0000 (  3183 PWs)   bands (ev):

   -19.7714 -18.4751 -16.4492 -14.8321  -9.2740  -5.8380  -1.8962  -1.6717
    -1.4687  -0.6656  -0.4973   0.5898   0.7492   1.0105   1.1395   2.0787

          k = 0.0333-0.0192 0.0000 (  3183 PWs)   bands (ev):

   -19.8056 -18.5090 -16.4823 -14.8633  -9.3075  -5.8689  -1.9154  -1.4871
    -1.3946  -0.5044  -0.4268   0.7429   0.8150   1.1426   1.2008   2.0486

          k = 0.0167-0.0096 0.0000 (  3181 PWs)   bands (ev):

   -19.8261 -18.5293 -16.5021 -14.8819  -9.3276  -5.8876  -1.9284  -1.3725
    -1.3489  -0.4034  -0.3835   0.8371   0.8555   1.2236   1.2384   2.0302

          k = 0.0000 0.0000 0.0000 (  3185 PWs)   bands (ev):

   -19.8329 -18.5360 -16.5087 -14.8882  -9.3343  -5.8939  -1.9330  -1.3339
    -1.3335  -0.3694  -0.3690   0.8689   0.8692   1.2508   1.2511   2.0239

     Writing all to output data dir ./tmp/diamond_bands.save/ :
     XML data file, pseudopotentials, collected wavefunctions

     init_run     :      0.49s CPU      0.52s WALL (       1 calls)
     electrons    :     54.70s CPU     54.89s WALL (       1 calls)

     Called by init_run:
     wfcinit      :      0.00s CPU      0.00s WALL (       1 calls)
     potinit      :      0.10s CPU      0.12s WALL (       1 calls)
     hinit0       :      0.36s CPU      0.36s WALL (       1 calls)

     Called by electrons:
     c_bands      :     54.70s CPU     54.89s WALL (       1 calls)
     v_of_rho     :      0.01s CPU      0.02s WALL (       1 calls)
     newd         :      0.01s CPU      0.02s WALL (       1 calls)
     PAW_pot      :      0.09s CPU      0.10s WALL (       1 calls)

     Called by c_bands:
     init_us_2    :      0.03s CPU      0.04s WALL (      91 calls)
     init_us_2:cp :      0.03s CPU      0.04s WALL (      91 calls)
     cegterg      :     50.49s CPU     50.61s WALL (     187 calls)

     Called by *egterg:
     cdiaghg      :      0.71s CPU      0.71s WALL (    2890 calls)
     h_psi        :     26.18s CPU     26.27s WALL (    3077 calls)
     s_psi        :      7.38s CPU      7.40s WALL (    3077 calls)
     g_psi        :      0.22s CPU      0.22s WALL (    2799 calls)

     Called by h_psi:
     h_psi:calbec :      7.10s CPU      7.14s WALL (    3077 calls)
     vloc_psi     :     11.52s CPU     11.56s WALL (    3077 calls)
     add_vuspsi   :      7.45s CPU      7.46s WALL (    3077 calls)

     General routines
     calbec       :      7.10s CPU      7.13s WALL (    3077 calls)
     fft          :      0.30s CPU      0.30s WALL (      12 calls)
     fftw         :      9.09s CPU      9.13s WALL (   70542 calls)
     davcio       :      0.05s CPU      0.07s WALL (     182 calls)

     Parallel routines

     PWSCF        :     55.24s CPU     55.52s WALL


   This run was terminated on:  14:16: 0   2May2026            

=------------------------------------------------------------------------------=
   JOB DONE.
=------------------------------------------------------------------------------=
